# vtk DataFile Version 3.0
vtk output
ASCII
DATASET UNSTRUCTURED_GRID
POINTS 961 float
0.000000e+00 0.000000e+00 0.000000e+00
3.333333e-02 0.000000e+00 0.000000e+00
6.666667e-02 0.000000e+00 0.000000e+00
1.000000e-01 0.000000e+00 0.000000e+00
1.333333e-01 0.000000e+00 0.000000e+00
1.666667e-01 0.000000e+00 0.000000e+00
2.000000e-01 0.000000e+00 0.000000e+00
2.333333e-01 0.000000e+00 0.000000e+00
2.666667e-01 0.000000e+00 0.000000e+00
3.000000e-01 0.000000e+00 0.000000e+00
3.333333e-01 0.000000e+00 0.000000e+00
3.666667e-01 0.000000e+00 0.000000e+00
4.000000e-01 0.000000e+00 0.000000e+00
4.333333e-01 0.000000e+00 0.000000e+00
4.666667e-01 0.000000e+00 0.000000e+00
5.000000e-01 0.000000e+00 0.000000e+00
5.333333e-01 0.000000e+00 0.000000e+00
5.666667e-01 0.000000e+00 0.000000e+00
6.000000e-01 0.000000e+00 0.000000e+00
6.333333e-01 0.000000e+00 0.000000e+00
6.666667e-01 0.000000e+00 0.000000e+00
7.000000e-01 0.000000e+00 0.000000e+00
7.333333e-01 0.000000e+00 0.000000e+00
7.666667e-01 0.000000e+00 0.000000e+00
8.000000e-01 0.000000e+00 0.000000e+00
8.333333e-01 0.000000e+00 0.000000e+00
8.666667e-01 0.000000e+00 0.000000e+00
9.000000e-01 0.000000e+00 0.000000e+00
9.333333e-01 0.000000e+00 0.000000e+00
9.666667e-01 0.000000e+00 0.000000e+00
1.000000e+00 0.000000e+00 0.000000e+00
0.000000e+00 3.333333e-02 0.000000e+00
3.333333e-02 3.333333e-02 0.000000e+00
6.666667e-02 3.333333e-02 0.000000e+00
1.000000e-01 3.333333e-02 0.000000e+00
1.333333e-01 3.333333e-02 0.000000e+00
1.666667e-01 3.333333e-02 0.000000e+00
2.000000e-01 3.333333e-02 0.000000e+00
2.333333e-01 3.333333e-02 0.000000e+00
2.666667e-01 3.333333e-02 0.000000e+00
3.000000e-01 3.333333e-02 0.000000e+00
3.333333e-01 3.333333e-02 0.000000e+00
3.666667e-01 3.333333e-02 0.000000e+00
4.000000e-01 3.333333e-02 0.000000e+00
4.333333e-01 3.333333e-02 0.000000e+00
4.666667e-01 3.333333e-02 0.000000e+00
5.000000e-01 3.333333e-02 0.000000e+00
5.333333e-01 3.333333e-02 0.000000e+00
5.666667e-01 3.333333e-02 0.000000e+00
6.000000e-01 3.333333e-02 0.000000e+00
6.333333e-01 3.333333e-02 0.000000e+00
6.666667e-01 3.333333e-02 0.000000e+00
7.000000e-01 3.333333e-02 0.000000e+00
7.333333e-01 3.333333e-02 0.000000e+00
7.666667e-01 3.333333e-02 0.000000e+00
8.000000e-01 3.333333e-02 0.000000e+00
8.333333e-01 3.333333e-02 0.000000e+00
8.666667e-01 3.333333e-02 0.000000e+00
9.000000e-01 3.333333e-02 0.000000e+00
9.333333e-01 3.333333e-02 0.000000e+00
9.666667e-01 3.333333e-02 0.000000e+00
1.000000e+00 3.333333e-02 0.000000e+00
0.000000e+00 6.666667e-02 0.000000e+00
3.333333e-02 6.666667e-02 0.000000e+00
6.666667e-02 6.666667e-02 0.000000e+00
1.000000e-01 6.666667e-02 0.000000e+00
1.333333e-01 6.666667e-02 0.000000e+00
1.666667e-01 6.666667e-02 0.000000e+00
2.000000e-01 6.666667e-02 0.000000e+00
2.333333e-01 6.666667e-02 0.000000e+00
2.666667e-01 6.666667e-02 0.000000e+00
3.000000e-01 6.666667e-02 0.000000e+00
3.333333e-01 6.666667e-02 0.000000e+00
3.666667e-01 6.666667e-02 0.000000e+00
4.000000e-01 6.666667e-02 0.000000e+00
4.333333e-01 6.666667e-02 0.000000e+00
4.666667e-01 6.666667e-02 0.000000e+00
5.000000e-01 6.666667e-02 0.000000e+00
5.333333e-01 6.666667e-02 0.000000e+00
5.666667e-01 6.666667e-02 0.000000e+00
6.000000e-01 6.666667e-02 0.000000e+00
6.333333e-01 6.666667e-02 0.000000e+00
6.666667e-01 6.666667e-02 0.000000e+00
7.000000e-01 6.666667e-02 0.000000e+00
7.333333e-01 6.666667e-02 0.000000e+00
7.666667e-01 6.666667e-02 0.000000e+00
8.000000e-01 6.666667e-02 0.000000e+00
8.333333e-01 6.666667e-02 0.000000e+00
8.666667e-01 6.666667e-02 0.000000e+00
9.000000e-01 6.666667e-02 0.000000e+00
9.333333e-01 6.666667e-02 0.000000e+00
9.666667e-01 6.666667e-02 0.000000e+00
1.000000e+00 6.666667e-02 0.000000e+00
0.000000e+00 1.000000e-01 0.000000e+00
3.333333e-02 1.000000e-01 0.000000e+00
6.666667e-02 1.000000e-01 0.000000e+00
1.000000e-01 1.000000e-01 0.000000e+00
1.333333e-01 1.000000e-01 0.000000e+00
1.666667e-01 1.000000e-01 0.000000e+00
2.000000e-01 1.000000e-01 0.000000e+00
2.333333e-01 1.000000e-01 0.000000e+00
2.666667e-01 1.000000e-01 0.000000e+00
3.000000e-01 1.000000e-01 0.000000e+00
3.333333e-01 1.000000e-01 0.000000e+00
3.666667e-01 1.000000e-01 0.000000e+00
4.000000e-01 1.000000e-01 0.000000e+00
4.333333e-01 1.000000e-01 0.000000e+00
4.666667e-01 1.000000e-01 0.000000e+00
5.000000e-01 1.000000e-01 0.000000e+00
5.333333e-01 1.000000e-01 0.000000e+00
5.666667e-01 1.000000e-01 0.000000e+00
6.000000e-01 1.000000e-01 0.000000e+00
6.333333e-01 1.000000e-01 0.000000e+00
6.666667e-01 1.000000e-01 0.000000e+00
7.000000e-01 1.000000e-01 0.000000e+00
7.333333e-01 1.000000e-01 0.000000e+00
7.666667e-01 1.000000e-01 0.000000e+00
8.000000e-01 1.000000e-01 0.000000e+00
8.333333e-01 1.000000e-01 0.000000e+00
8.666667e-01 1.000000e-01 0.000000e+00
9.000000e-01 1.000000e-01 0.000000e+00
9.333333e-01 1.000000e-01 0.000000e+00
9.666667e-01 1.000000e-01 0.000000e+00
1.000000e+00 1.000000e-01 0.000000e+00
0.000000e+00 1.333333e-01 0.000000e+00
3.333333e-02 1.333333e-01 0.000000e+00
6.666667e-02 1.333333e-01 0.000000e+00
1.000000e-01 1.333333e-01 0.000000e+00
1.333333e-01 1.333333e-01 0.000000e+00
1.666667e-01 1.333333e-01 0.000000e+00
2.000000e-01 1.333333e-01 0.000000e+00
2.333333e-01 1.333333e-01 0.000000e+00
2.666667e-01 1.333333e-01 0.000000e+00
3.000000e-01 1.333333e-01 0.000000e+00
3.333333e-01 1.333333e-01 0.000000e+00
3.666667e-01 1.333333e-01 0.000000e+00
4.000000e-01 1.333333e-01 0.000000e+00
4.333333e-01 1.333333e-01 0.000000e+00
4.666667e-01 1.333333e-01 0.000000e+00
5.000000e-01 1.333333e-01 0.000000e+00
5.333333e-01 1.333333e-01 0.000000e+00
5.666667e-01 1.333333e-01 0.000000e+00
6.000000e-01 1.333333e-01 0.000000e+00
6.333333e-01 1.333333e-01 0.000000e+00
6.666667e-01 1.333333e-01 0.000000e+00
7.000000e-01 1.333333e-01 0.000000e+00
7.333333e-01 1.333333e-01 0.000000e+00
7.666667e-01 1.333333e-01 0.000000e+00
8.000000e-01 1.333333e-01 0.000000e+00
8.333333e-01 1.333333e-01 0.000000e+00
8.666667e-01 1.333333e-01 0.000000e+00
9.000000e-01 1.333333e-01 0.000000e+00
9.333333e-01 1.333333e-01 0.000000e+00
9.666667e-01 1.333333e-01 0.000000e+00
1.000000e+00 1.333333e-01 0.000000e+00
0.000000e+00 1.666667e-01 0.000000e+00
3.333333e-02 1.666667e-01 0.000000e+00
6.666667e-02 1.666667e-01 0.000000e+00
1.000000e-01 1.666667e-01 0.000000e+00
1.333333e-01 1.666667e-01 0.000000e+00
1.666667e-01 1.666667e-01 0.000000e+00
2.000000e-01 1.666667e-01 0.000000e+00
2.333333e-01 1.666667e-01 0.000000e+00
2.666667e-01 1.666667e-01 0.000000e+00
3.000000e-01 1.666667e-01 0.000000e+00
3.333333e-01 1.666667e-01 0.000000e+00
3.666667e-01 1.666667e-01 0.000000e+00
4.000000e-01 1.666667e-01 0.000000e+00
4.333333e-01 1.666667e-01 0.000000e+00
4.666667e-01 1.666667e-01 0.000000e+00
5.000000e-01 1.666667e-01 0.000000e+00
5.333333e-01 1.666667e-01 0.000000e+00
5.666667e-01 1.666667e-01 0.000000e+00
6.000000e-01 1.666667e-01 0.000000e+00
6.333333e-01 1.666667e-01 0.000000e+00
6.666667e-01 1.666667e-01 0.000000e+00
7.000000e-01 1.666667e-01 0.000000e+00
7.333333e-01 1.666667e-01 0.000000e+00
7.666667e-01 1.666667e-01 0.000000e+00
8.000000e-01 1.666667e-01 0.000000e+00
8.333333e-01 1.666667e-01 0.000000e+00
8.666667e-01 1.666667e-01 0.000000e+00
9.000000e-01 1.666667e-01 0.000000e+00
9.333333e-01 1.666667e-01 0.000000e+00
9.666667e-01 1.666667e-01 0.000000e+00
1.000000e+00 1.666667e-01 0.000000e+00
0.000000e+00 2.000000e-01 0.000000e+00
3.333333e-02 2.000000e-01 0.000000e+00
6.666667e-02 2.000000e-01 0.000000e+00
1.000000e-01 2.000000e-01 0.000000e+00
1.333333e-01 2.000000e-01 0.000000e+00
1.666667e-01 2.000000e-01 0.000000e+00
2.000000e-01 2.000000e-01 0.000000e+00
2.333333e-01 2.000000e-01 0.000000e+00
2.666667e-01 2.000000e-01 0.000000e+00
3.000000e-01 2.000000e-01 0.000000e+00
3.333333e-01 2.000000e-01 0.000000e+00
3.666667e-01 2.000000e-01 0.000000e+00
4.000000e-01 2.000000e-01 0.000000e+00
4.333333e-01 2.000000e-01 0.000000e+00
4.666667e-01 2.000000e-01 0.000000e+00
5.000000e-01 2.000000e-01 0.000000e+00
5.333333e-01 2.000000e-01 0.000000e+00
5.666667e-01 2.000000e-01 0.000000e+00
6.000000e-01 2.000000e-01 0.000000e+00
6.333333e-01 2.000000e-01 0.000000e+00
6.666667e-01 2.000000e-01 0.000000e+00
7.000000e-01 2.000000e-01 0.000000e+00
7.333333e-01 2.000000e-01 0.000000e+00
7.666667e-01 2.000000e-01 0.000000e+00
8.000000e-01 2.000000e-01 0.000000e+00
8.333333e-01 2.000000e-01 0.000000e+00
8.666667e-01 2.000000e-01 0.000000e+00
9.000000e-01 2.000000e-01 0.000000e+00
9.333333e-01 2.000000e-01 0.000000e+00
9.666667e-01 2.000000e-01 0.000000e+00
1.000000e+00 2.000000e-01 0.000000e+00
0.000000e+00 2.333333e-01 0.000000e+00
3.333333e-02 2.333333e-01 0.000000e+00
6.666667e-02 2.333333e-01 0.000000e+00
1.000000e-01 2.333333e-01 0.000000e+00
1.333333e-01 2.333333e-01 0.000000e+00
1.666667e-01 2.333333e-01 0.000000e+00
2.000000e-01 2.333333e-01 0.000000e+00
2.333333e-01 2.333333e-01 0.000000e+00
2.666667e-01 2.333333e-01 0.000000e+00
3.000000e-01 2.333333e-01 0.000000e+00
3.333333e-01 2.333333e-01 0.000000e+00
3.666667e-01 2.333333e-01 0.000000e+00
4.000000e-01 2.333333e-01 0.000000e+00
4.333333e-01 2.333333e-01 0.000000e+00
4.666667e-01 2.333333e-01 0.000000e+00
5.000000e-01 2.333333e-01 0.000000e+00
5.333333e-01 2.333333e-01 0.000000e+00
5.666667e-01 2.333333e-01 0.000000e+00
6.000000e-01 2.333333e-01 0.000000e+00
6.333333e-01 2.333333e-01 0.000000e+00
6.666667e-01 2.333333e-01 0.000000e+00
7.000000e-01 2.333333e-01 0.000000e+00
7.333333e-01 2.333333e-01 0.000000e+00
7.666667e-01 2.333333e-01 0.000000e+00
8.000000e-01 2.333333e-01 0.000000e+00
8.333333e-01 2.333333e-01 0.000000e+00
8.666667e-01 2.333333e-01 0.000000e+00
9.000000e-01 2.333333e-01 0.000000e+00
9.333333e-01 2.333333e-01 0.000000e+00
9.666667e-01 2.333333e-01 0.000000e+00
1.000000e+00 2.333333e-01 0.000000e+00
0.000000e+00 2.666667e-01 0.000000e+00
3.333333e-02 2.666667e-01 0.000000e+00
6.666667e-02 2.666667e-01 0.000000e+00
1.000000e-01 2.666667e-01 0.000000e+00
1.333333e-01 2.666667e-01 0.000000e+00
1.666667e-01 2.666667e-01 0.000000e+00
[...]
POINT_DATA 961
SCALARS u float
LOOKUP_TABLE default
0.000000e+00
0.000000e+00
0.000000e+00
0.000000e+00
0.000000e+00
0.000000e+00
0.000000e+00
0.000000e+00
0.000000e+00
0.000000e+00
0.000000e+00
0.000000e+00
0.000000e+00
0.000000e+00
0.000000e+00
0.000000e+00
0.000000e+00
0.000000e+00
0.000000e+00
0.000000e+00
0.000000e+00
0.000000e+00
0.000000e+00
0.000000e+00
0.000000e+00
0.000000e+00
0.000000e+00
0.000000e+00
0.000000e+00
0.000000e+00
0.000000e+00
0.000000e+00
1.868438e-03
3.243601e-03
4.330316e-03
5.223450e-03
5.973802e-03
6.611830e-03
7.157345e-03
7.623973e-03
8.021426e-03
8.356756e-03
8.635087e-03
8.860068e-03
9.034149e-03
9.158752e-03
9.234367e-03
9.260589e-03
9.236116e-03
9.158690e-03
9.024998e-03
8.830499e-03
8.569179e-03
8.233172e-03
7.812180e-03
7.292576e-03
6.655903e-03
5.876234e-03
4.915080e-03
3.710492e-03
2.150590e-03
0.000000e+00
0.000000e+00
3.243601e-03
5.818499e-03
7.923671e-03
9.682456e-03
1.117295e-02
1.244672e-02
1.353923e-02
1.447570e-02
1.527450e-02
1.594913e-02
1.650953e-02
1.696276e-02
1.731361e-02
1.756483e-02
1.771735e-02
1.777032e-02
1.772113e-02
1.756525e-02
1.729607e-02
1.690457e-02
1.637886e-02
1.570346e-02
1.485823e-02
1.381687e-02
1.254433e-02
1.099273e-02
9.094281e-03
6.748716e-03
3.800446e-03
0.000000e+00
0.000000e+00
4.330316e-03
7.923671e-03
1.094225e-02
1.350590e-02
1.570072e-02
1.758872e-02
1.921518e-02
2.061359e-02
2.180901e-02
2.282022e-02
2.366117e-02
2.434192e-02
2.486926e-02
2.524707e-02
2.547661e-02
2.555654e-02
2.548291e-02
2.524901e-02
2.484507e-02
2.425784e-02
2.346994e-02
2.245894e-02
2.119601e-02
1.964401e-02
1.775458e-02
1.546378e-02
1.268552e-02
9.301622e-03
5.148086e-03
0.000000e+00
0.000000e+00
5.223450e-03
9.682456e-03
1.350590e-02
1.679996e-02
1.964826e-02
2.211550e-02
2.425149e-02
2.609457e-02
2.767428e-02
2.901319e-02
3.012833e-02
3.103206e-02
3.173274e-02
3.223515e-02
3.254067e-02
3.264741e-02
3.255013e-02
3.224003e-02
3.170442e-02
3.092620e-02
2.988311e-02
2.854671e-02
2.688091e-02
2.483997e-02
2.236577e-02
1.938386e-02
1.579837e-02
1.148536e-02
6.285636e-03
0.000000e+00
0.000000e+00
5.973802e-03
1.117295e-02
1.570072e-02
1.964826e-02
2.309229e-02
2.609556e-02
2.870866e-02
3.097195e-02
3.291739e-02
3.456990e-02
3.594853e-02
3.706726e-02
3.793554e-02
3.855867e-02
3.893804e-02
3.907111e-02
3.895139e-02
3.856814e-02
3.790606e-02
3.694465e-02
3.565749e-02
3.401116e-02
3.196379e-02
2.946327e-02
2.644477e-02
2.282768e-02
1.851188e-02
1.337373e-02
7.262582e-03
0.000000e+00
0.000000e+00
6.611830e-03
1.244672e-02
1.758872e-02
2.211550e-02
2.609556e-02
2.958745e-02
3.264019e-02
3.529411e-02
3.758193e-02
3.952967e-02
4.115749e-02
4.248027e-02
4.350806e-02
4.424642e-02
4.469649e-02
4.485507e-02
4.471444e-02
4.426215e-02
4.348056e-02
4.234630e-02
4.082952e-02
3.889279e-02
3.648990e-02
3.356420e-02
3.004662e-02
2.585332e-02
2.088323e-02
1.501564e-02
8.108717e-03
0.000000e+00
0.000000e+00
7.157345e-03
1.353923e-02
1.921518e-02
2.425149e-02
2.870866e-02
3.264019e-02
3.609224e-02
3.910380e-02
4.170718e-02
4.392852e-02
4.578828e-02
4.730166e-02
4.847892e-02
4.932553e-02
4.984227e-02
5.002520e-02
4.986546e-02
4.934906e-02
4.845637e-02
4.716164e-02
4.543221e-02
4.322763e-02
4.049849e-02
3.718509e-02
3.321586e-02
2.850572e-02
2.295435e-02
1.644491e-02
8.843509e-03
0.000000e+00
0.000000e+00
7.623973e-03
1.447570e-02
2.061359e-02
2.609457e-02
3.097195e-02
3.529411e-02
3.910380e-02
4.243793e-02
4.532765e-02
4.779850e-02
4.987067e-02
5.155924e-02
5.287426e-02
5.382093e-02
5.439951e-02
5.460531e-02
5.442843e-02
5.385349e-02
5.285922e-02
5.141790e-02
4.949472e-02
4.704693e-02
4.402288e-02
4.036093e-02
3.598825e-02
3.081964e-02
2.475641e-02
1.768571e-02
9.480409e-03
0.000000e+00
0.000000e+00
8.021426e-03
1.527450e-02
2.180901e-02
2.767428e-02
3.291739e-02
3.758193e-02
4.170718e-02
4.532765e-02
4.847288e-02
5.116740e-02
5.343073e-02
5.527744e-02
5.671720e-02
5.775469e-02
5.838962e-02
5.861653e-02
5.842454e-02
5.779712e-02
5.671161e-02
5.513875e-02
5.304205e-02
5.037710e-02
4.709073e-02
4.312017e-02
3.839213e-02
3.282191e-02
2.631280e-02
1.875565e-02
1.002903e-02
0.000000e+00
0.000000e+00
8.356756e-03
1.594913e-02
2.282022e-02
2.901319e-02
3.456990e-02
3.952967e-02
4.392852e-02
4.779850e-02
5.116740e-02
5.405849e-02
5.649040e-02
5.847700e-02
6.002737e-02
6.114562e-02
6.183082e-02
6.207678e-02
6.187178e-02
6.119828e-02
6.003248e-02
5.834393e-02
5.609488e-02
5.323974e-02
4.972438e-02
4.548543e-02
4.044958e-02
3.453304e-02
2.764103e-02
1.966771e-02
1.049635e-02
0.000000e+00
0.000000e+00
8.635087e-03
1.650953e-02
2.366117e-02
3.012833e-02
3.594853e-02
4.115749e-02
4.578828e-02
4.987067e-02
5.343073e-02
5.649040e-02
5.906731e-02
6.117456e-02
6.282055e-02
6.400879e-02
6.473771e-02
6.500043e-02
6.478450e-02
6.407152e-02
6.283684e-02
6.104904e-02
5.866948e-02
5.565175e-02
5.194113e-02
4.747400e-02
4.217735e-02
3.596833e-02
2.875401e-02
2.043134e-02
1.088740e-02
0.000000e+00
0.000000e+00
8.860068e-03
1.696276e-02
2.434192e-02
3.103206e-02
3.706726e-02
4.248027e-02
4.730166e-02
5.155924e-02
5.527744e-02
5.847700e-02
6.117456e-02
6.338244e-02
6.510835e-02
6.635521e-02
6.712087e-02
6.739784e-02
6.717302e-02
6.642738e-02
6.513553e-02
6.326538e-02
6.077763e-02
5.762535e-02
5.375347e-02
4.909837e-02
4.358740e-02
3.713868e-02
2.966085e-02
2.105315e-02
1.120571e-02
0.000000e+00
0.000000e+00
9.034149e-03
1.731361e-02
2.486926e-02
3.173274e-02
3.793554e-02
4.350806e-02
4.847892e-02
5.287426e-02
5.671720e-02
6.002737e-02
6.282055e-02
6.510835e-02
6.689788e-02
6.819151e-02
6.898656e-02
6.927506e-02
6.904340e-02
6.827200e-02
6.693498e-02
6.499974e-02
6.242654e-02
5.916814e-02
5.516929e-02
5.036645e-02
4.468741e-02
3.805108e-02
3.036740e-02
2.153741e-02
1.145353e-02
0.000000e+00
0.000000e+00
9.158752e-03
1.756483e-02
2.524707e-02
3.223515e-02
3.855867e-02
4.424642e-02
4.932553e-02
5.382093e-02
5.775469e-02
6.114562e-02
6.400879e-02
6.635521e-02
6.819151e-02
6.951959e-02
7.033639e-02
7.063353e-02
7.039702e-02
6.960691e-02
6.823696e-02
6.625424e-02
6.361876e-02
6.028306e-02
5.619189e-02
5.128181e-02
4.548097e-02
3.870893e-02
3.087658e-02
2.188626e-02
1.163201e-02
0.000000e+00
0.000000e+00
9.234367e-03
1.771735e-02
2.547661e-02
3.254067e-02
3.893804e-02
4.469649e-02
4.984227e-02
5.439951e-02
5.838962e-02
6.183082e-02
6.473771e-02
6.712087e-02
6.898656e-02
7.033639e-02
7.116700e-02
7.146973e-02
7.123036e-02
7.042871e-02
6.903833e-02
6.702612e-02
6.435196e-02
6.096834e-02
5.681999e-02
5.184365e-02
4.596771e-02
3.911217e-02
3.118851e-02
2.209988e-02
1.174127e-02
0.000000e+00
0.000000e+00
9.260589e-03
1.777032e-02
2.555654e-02
3.264741e-02
3.907111e-02
4.485507e-02
5.002520e-02
5.460531e-02
5.861653e-02
6.207678e-02
6.500043e-02
6.739784e-02
6.927506e-02
7.063353e-02
7.146973e-02
7.177489e-02
7.153466e-02
7.072880e-02
6.933079e-02
6.730750e-02
6.461882e-02
6.121726e-02
5.704766e-02
5.204682e-02
4.614331e-02
3.925733e-02
3.130059e-02
2.217652e-02
1.178043e-02
0.000000e+00
0.000000e+00
9.236116e-03
1.772113e-02
2.548291e-02
3.255013e-02
3.895139e-02
4.471444e-02
4.986546e-02
5.442843e-02
5.842454e-02
6.187178e-02
6.478450e-02
6.717302e-02
6.904340e-02
7.039702e-02
7.123036e-02
7.153466e-02
7.129562e-02
7.049306e-02
6.910056e-02
6.708511e-02
6.440672e-02
6.101805e-02
5.686404e-02
5.188161e-02
4.599936e-02
3.913743e-02
3.120742e-02
2.211248e-02
1.174761e-02
0.000000e+00
0.000000e+00
9.158690e-03
1.756525e-02
2.524901e-02
3.224003e-02
3.856814e-02
4.426215e-02
4.934906e-02
5.385349e-02
5.779712e-02
6.119828e-02
6.407152e-02
6.642738e-02
6.827200e-02
6.960691e-02
7.042871e-02
7.072880e-02
7.049306e-02
6.970154e-02
6.832808e-02
6.633995e-02
6.369743e-02
6.035345e-02
5.625315e-02
5.133352e-02
4.552311e-02
3.874177e-02
3.090061e-02
2.190198e-02
1.163981e-02
0.000000e+00
0.000000e+00
9.024998e-03
1.729607e-02
2.484507e-02
3.170442e-02
3.790606e-02
4.348056e-02
4.845637e-02
5.285922e-02
5.671161e-02
6.003248e-02
6.283684e-02
6.513553e-02
6.693498e-02
6.823696e-02
6.903833e-02
6.933079e-02
6.910056e-02
6.832808e-02
6.698763e-02
6.504694e-02
6.246678e-02
5.920046e-02
5.519344e-02
5.038285e-02
4.469711e-02
3.805561e-02
3.036855e-02
2.153694e-02
1.145288e-02
0.000000e+00
0.000000e+00
8.830499e-03
1.690457e-02
2.425784e-02
3.092620e-02
3.694465e-02
4.234630e-02
4.716164e-02
5.141790e-02
5.513875e-02
5.834393e-02
6.104904e-02
6.326538e-02
6.499974e-02
6.625424e-02
6.702612e-02
6.730750e-02
6.708511e-02
6.633995e-02
6.504694e-02
6.317452e-02
6.068413e-02
5.752974e-02
5.365729e-02
4.900418e-02
4.349870e-02
3.705963e-02
2.959594e-02
2.100670e-02
1.118130e-02
0.000000e+00
0.000000e+00
8.569179e-03
1.637886e-02
2.346994e-02
2.988311e-02
3.565749e-02
4.082952e-02
4.543221e-02
4.949472e-02
5.304205e-02
5.609488e-02
5.866948e-02
6.077763e-02
6.242654e-02
6.361876e-02
6.435196e-02
6.461882e-02
6.440672e-02
6.369743e-02
6.246678e-02
6.068413e-02
5.831194e-02
5.530512e-02
5.161042e-02
4.716570e-02
4.189930e-02
3.572933e-02
2.856324e-02
2.029753e-02
1.081792e-02
0.000000e+00
0.000000e+00
8.233172e-03
1.570346e-02
2.245894e-02
2.854671e-02
3.401116e-02
3.889279e-02
4.322763e-02
4.704693e-02
5.037710e-02
5.323974e-02
5.565175e-02
5.762535e-02
5.916814e-02
6.028306e-02
6.096834e-02
6.121726e-02
6.101805e-02
6.035345e-02
5.920046e-02
5.752974e-02
5.530512e-02
5.248290e-02
4.901106e-02
4.482836e-02
3.986349e-02
3.403404e-02
2.724576e-02
1.939198e-02
1.035365e-02
0.000000e+00
0.000000e+00
7.812180e-03
1.485823e-02
2.119601e-02
2.688091e-02
3.196379e-02
3.648990e-02
4.049849e-02
4.402288e-02
4.709073e-02
4.972438e-02
5.194113e-02
5.375347e-02
5.516929e-02
5.619189e-02
5.681999e-02
5.704766e-02
5.686404e-02
5.625315e-02
5.519344e-02
5.365729e-02
5.161042e-02
4.901106e-02
4.580905e-02
4.194476e-02
3.734779e-02
3.193565e-02
2.561246e-02
1.826790e-02
9.776828e-03
0.000000e+00
0.000000e+00
7.292576e-03
1.381687e-02
1.964401e-02
2.483997e-02
2.946327e-02
3.356420e-02
3.718509e-02
4.036093e-02
4.312017e-02
4.548543e-02
4.747400e-02
4.909837e-02
5.036645e-02
5.128181e-02
5.184365e-02
5.204682e-02
5.188161e-02
5.133352e-02
5.038285e-02
4.900418e-02
4.716570e-02
4.482836e-02
4.194476e-02
3.845780e-02
3.429905e-02
2.938685e-02
2.362420e-02
1.689693e-02
9.072393e-03
0.000000e+00
0.000000e+00
6.655903e-03
1.254433e-02
1.775458e-02
2.236577e-02
2.644477e-02
3.004662e-02
3.321586e-02
3.598825e-02
3.839213e-02
4.044958e-02
4.217735e-02
4.358740e-02
4.468741e-02
4.548097e-02
4.596771e-02
4.614331e-02
4.599936e-02
4.552311e-02
4.469711e-02
4.349870e-02
4.189930e-02
3.986349e-02
3.734779e-02
3.429905e-02
3.065241e-02
2.632866e-02
2.123111e-02
1.524215e-02
8.220406e-03
0.000000e+00
0.000000e+00
5.876234e-03
1.099273e-02
1.546378e-02
1.938386e-02
2.282768e-02
2.585332e-02
2.850572e-02
3.081964e-02
3.282191e-02
3.453304e-02
3.596833e-02
3.713868e-02
3.805108e-02
3.870893e-02
3.911217e-02
3.925733e-02
3.913743e-02
3.874177e-02
3.805561e-02
3.705963e-02
3.572933e-02
3.403404e-02
3.193565e-02
2.938685e-02
2.632866e-02
2.268711e-02
1.836862e-02
1.325427e-02
7.193510e-03
0.000000e+00
0.000000e+00
4.915080e-03
9.094281e-03
1.268552e-02
1.579837e-02
1.851188e-02
2.088323e-02
2.295435e-02
2.475641e-02
2.631280e-02
2.764103e-02
2.875401e-02
2.966085e-02
3.036740e-02
3.087658e-02
3.118851e-02
3.130059e-02
3.120742e-02
3.090061e-02
3.036855e-02
2.959594e-02
2.856324e-02
2.724576e-02
2.561246e-02
2.362420e-02
2.123111e-02
1.836862e-02
1.495152e-02
1.086495e-02
5.951995e-03
0.000000e+00
0.000000e+00
3.710492e-03
6.748716e-03
9.301622e-03
1.148536e-02
1.337373e-02
1.501564e-02
1.644491e-02
1.768571e-02
1.875565e-02
1.966771e-02
2.043134e-02
2.105315e-02
2.153741e-02
2.188626e-02
2.209988e-02
2.217652e-02
2.211248e-02
2.190198e-02
2.153694e-02
2.100670e-02
2.029753e-02
1.939198e-02
1.826790e-02
1.689693e-02
1.524215e-02
1.325427e-02
1.086495e-02
7.975047e-03
4.433257e-03
0.000000e+00
0.000000e+00
2.150590e-03
3.800446e-03
5.148086e-03
6.285636e-03
7.262582e-03
8.108717e-03
8.843509e-03
9.480409e-03
1.002903e-02
1.049635e-02
1.088740e-02
1.120571e-02
1.145353e-02
1.163201e-02
1.174127e-02
1.178043e-02
1.174761e-02
1.163981e-02
1.145288e-02
1.118130e-02
1.081792e-02
1.035365e-02
9.776828e-03
9.072393e-03
8.220406e-03
7.193510e-03
5.951995e-03
4.433257e-03
2.526191e-03
0.000000e+00
0.000000e+00
0.000000e+00
0.000000e+00
0.000000e+00
0.000000e+00
0.000000e+00
0.000000e+00
0.000000e+00
0.000000e+00
0.000000e+00
0.000000e+00
0.000000e+00
0.000000e+00
0.000000e+00
0.000000e+00
0.000000e+00
0.000000e+00
0.000000e+00
0.000000e+00
0.000000e+00
0.000000e+00
0.000000e+00
0.000000e+00
0.000000e+00
0.000000e+00
0.000000e+00
0.000000e+00
0.000000e+00
0.000000e+00
0.000000e+00
0.000000e+00
