# vtk DataFile Version 3.0
vtk output
ASCII
DATASET UNSTRUCTURED_GRID
POINTS 961 float
0.000000e+00 0.000000e+00 0.000000e+00
3.333333e-02 0.000000e+00 0.000000e+00
6.666667e-02 0.000000e+00 0.000000e+00
1.000000e-01 0.000000e+00 0.000000e+00
1.333333e-01 0.000000e+00 0.000000e+00
1.666667e-01 0.000000e+00 0.000000e+00
2.000000e-01 0.000000e+00 0.000000e+00
2.333333e-01 0.000000e+00 0.000000e+00
2.666667e-01 0.000000e+00 0.000000e+00
3.000000e-01 0.000000e+00 0.000000e+00
3.333333e-01 0.000000e+00 0.000000e+00
3.666667e-01 0.000000e+00 0.000000e+00
4.000000e-01 0.000000e+00 0.000000e+00
4.333333e-01 0.000000e+00 0.000000e+00
4.666667e-01 0.000000e+00 0.000000e+00
5.000000e-01 0.000000e+00 0.000000e+00
5.333333e-01 0.000000e+00 0.000000e+00
5.666667e-01 0.000000e+00 0.000000e+00
6.000000e-01 0.000000e+00 0.000000e+00
6.333333e-01 0.000000e+00 0.000000e+00
6.666667e-01 0.000000e+00 0.000000e+00
7.000000e-01 0.000000e+00 0.000000e+00
7.333333e-01 0.000000e+00 0.000000e+00
7.666667e-01 0.000000e+00 0.000000e+00
8.000000e-01 0.000000e+00 0.000000e+00
8.333333e-01 0.000000e+00 0.000000e+00
8.666667e-01 0.000000e+00 0.000000e+00
9.000000e-01 0.000000e+00 0.000000e+00
9.333333e-01 0.000000e+00 0.000000e+00
9.666667e-01 0.000000e+00 0.000000e+00
1.000000e+00 0.000000e+00 0.000000e+00
0.000000e+00 3.333333e-02 0.000000e+00
3.333333e-02 3.333333e-02 0.000000e+00
6.666667e-02 3.333333e-02 0.000000e+00
1.000000e-01 3.333333e-02 0.000000e+00
1.333333e-01 3.333333e-02 0.000000e+00
1.666667e-01 3.333333e-02 0.000000e+00
2.000000e-01 3.333333e-02 0.000000e+00
2.333333e-01 3.333333e-02 0.000000e+00
2.666667e-01 3.333333e-02 0.000000e+00
3.000000e-01 3.333333e-02 0.000000e+00
3.333333e-01 3.333333e-02 0.000000e+00
3.666667e-01 3.333333e-02 0.000000e+00
4.000000e-01 3.333333e-02 0.000000e+00
4.333333e-01 3.333333e-02 0.000000e+00
4.666667e-01 3.333333e-02 0.000000e+00
5.000000e-01 3.333333e-02 0.000000e+00
5.333333e-01 3.333333e-02 0.000000e+00
5.666667e-01 3.333333e-02 0.000000e+00
6.000000e-01 3.333333e-02 0.000000e+00
6.333333e-01 3.333333e-02 0.000000e+00
6.666667e-01 3.333333e-02 0.000000e+00
7.000000e-01 3.333333e-02 0.000000e+00
7.333333e-01 3.333333e-02 0.000000e+00
7.666667e-01 3.333333e-02 0.000000e+00
8.000000e-01 3.333333e-02 0.000000e+00
8.333333e-01 3.333333e-02 0.000000e+00
8.666667e-01 3.333333e-02 0.000000e+00
9.000000e-01 3.333333e-02 0.000000e+00
9.333333e-01 3.333333e-02 0.000000e+00
9.666667e-01 3.333333e-02 0.000000e+00
1.000000e+00 3.333333e-02 0.000000e+00
0.000000e+00 6.666667e-02 0.000000e+00
3.333333e-02 6.666667e-02 0.000000e+00
6.666667e-02 6.666667e-02 0.000000e+00
1.000000e-01 6.666667e-02 0.000000e+00
1.333333e-01 6.666667e-02 0.000000e+00
1.666667e-01 6.666667e-02 0.000000e+00
2.000000e-01 6.666667e-02 0.000000e+00
2.333333e-01 6.666667e-02 0.000000e+00
2.666667e-01 6.666667e-02 0.000000e+00
3.000000e-01 6.666667e-02 0.000000e+00
3.333333e-01 6.666667e-02 0.000000e+00
3.666667e-01 6.666667e-02 0.000000e+00
4.000000e-01 6.666667e-02 0.000000e+00
4.333333e-01 6.666667e-02 0.000000e+00
4.666667e-01 6.666667e-02 0.000000e+00
5.000000e-01 6.666667e-02 0.000000e+00
5.333333e-01 6.666667e-02 0.000000e+00
5.666667e-01 6.666667e-02 0.000000e+00
6.000000e-01 6.666667e-02 0.000000e+00
6.333333e-01 6.666667e-02 0.000000e+00
6.666667e-01 6.666667e-02 0.000000e+00
7.000000e-01 6.666667e-02 0.000000e+00
7.333333e-01 6.666667e-02 0.000000e+00
7.666667e-01 6.666667e-02 0.000000e+00
8.000000e-01 6.666667e-02 0.000000e+00
8.333333e-01 6.666667e-02 0.000000e+00
8.666667e-01 6.666667e-02 0.000000e+00
9.000000e-01 6.666667e-02 0.000000e+00
9.333333e-01 6.666667e-02 0.000000e+00
9.666667e-01 6.666667e-02 0.000000e+00
1.000000e+00 6.666667e-02 0.000000e+00
0.000000e+00 1.000000e-01 0.000000e+00
3.333333e-02 1.000000e-01 0.000000e+00
6.666667e-02 1.000000e-01 0.000000e+00
1.000000e-01 1.000000e-01 0.000000e+00
1.333333e-01 1.000000e-01 0.000000e+00
1.666667e-01 1.000000e-01 0.000000e+00
2.000000e-01 1.000000e-01 0.000000e+00
2.333333e-01 1.000000e-01 0.000000e+00
2.666667e-01 1.000000e-01 0.000000e+00
3.000000e-01 1.000000e-01 0.000000e+00
3.333333e-01 1.000000e-01 0.000000e+00
3.666667e-01 1.000000e-01 0.000000e+00
4.000000e-01 1.000000e-01 0.000000e+00
4.333333e-01 1.000000e-01 0.000000e+00
4.666667e-01 1.000000e-01 0.000000e+00
5.000000e-01 1.000000e-01 0.000000e+00
5.333333e-01 1.000000e-01 0.000000e+00
5.666667e-01 1.000000e-01 0.000000e+00
6.000000e-01 1.000000e-01 0.000000e+00
6.333333e-01 1.000000e-01 0.000000e+00
6.666667e-01 1.000000e-01 0.000000e+00
7.000000e-01 1.000000e-01 0.000000e+00
7.333333e-01 1.000000e-01 0.000000e+00
7.666667e-01 1.000000e-01 0.000000e+00
8.000000e-01 1.000000e-01 0.000000e+00
8.333333e-01 1.000000e-01 0.000000e+00
8.666667e-01 1.000000e-01 0.000000e+00
9.000000e-01 1.000000e-01 0.000000e+00
9.333333e-01 1.000000e-01 0.000000e+00
9.666667e-01 1.000000e-01 0.000000e+00
1.000000e+00 1.000000e-01 0.000000e+00
0.000000e+00 1.333333e-01 0.000000e+00
3.333333e-02 1.333333e-01 0.000000e+00
6.666667e-02 1.333333e-01 0.000000e+00
1.000000e-01 1.333333e-01 0.000000e+00
1.333333e-01 1.333333e-01 0.000000e+00
1.666667e-01 1.333333e-01 0.000000e+00
2.000000e-01 1.333333e-01 0.000000e+00
2.333333e-01 1.333333e-01 0.000000e+00
2.666667e-01 1.333333e-01 0.000000e+00
3.000000e-01 1.333333e-01 0.000000e+00
3.333333e-01 1.333333e-01 0.000000e+00
3.666667e-01 1.333333e-01 0.000000e+00
4.000000e-01 1.333333e-01 0.000000e+00
4.333333e-01 1.333333e-01 0.000000e+00
4.666667e-01 1.333333e-01 0.000000e+00
5.000000e-01 1.333333e-01 0.000000e+00
5.333333e-01 1.333333e-01 0.000000e+00
5.666667e-01 1.333333e-01 0.000000e+00
6.000000e-01 1.333333e-01 0.000000e+00
6.333333e-01 1.333333e-01 0.000000e+00
6.666667e-01 1.333333e-01 0.000000e+00
7.000000e-01 1.333333e-01 0.000000e+00
7.333333e-01 1.333333e-01 0.000000e+00
7.666667e-01 1.333333e-01 0.000000e+00
8.000000e-01 1.333333e-01 0.000000e+00
8.333333e-01 1.333333e-01 0.000000e+00
8.666667e-01 1.333333e-01 0.000000e+00
9.000000e-01 1.333333e-01 0.000000e+00
9.333333e-01 1.333333e-01 0.000000e+00
9.666667e-01 1.333333e-01 0.000000e+00
1.000000e+00 1.333333e-01 0.000000e+00
0.000000e+00 1.666667e-01 0.000000e+00
3.333333e-02 1.666667e-01 0.000000e+00
6.666667e-02 1.666667e-01 0.000000e+00
1.000000e-01 1.666667e-01 0.000000e+00
1.333333e-01 1.666667e-01 0.000000e+00
1.666667e-01 1.666667e-01 0.000000e+00
2.000000e-01 1.666667e-01 0.000000e+00
2.333333e-01 1.666667e-01 0.000000e+00
2.666667e-01 1.666667e-01 0.000000e+00
3.000000e-01 1.666667e-01 0.000000e+00
3.333333e-01 1.666667e-01 0.000000e+00
3.666667e-01 1.666667e-01 0.000000e+00
4.000000e-01 1.666667e-01 0.000000e+00
4.333333e-01 1.666667e-01 0.000000e+00
4.666667e-01 1.666667e-01 0.000000e+00
5.000000e-01 1.666667e-01 0.000000e+00
5.333333e-01 1.666667e-01 0.000000e+00
5.666667e-01 1.666667e-01 0.000000e+00
6.000000e-01 1.666667e-01 0.000000e+00
6.333333e-01 1.666667e-01 0.000000e+00
6.666667e-01 1.666667e-01 0.000000e+00
7.000000e-01 1.666667e-01 0.000000e+00
7.333333e-01 1.666667e-01 0.000000e+00
7.666667e-01 1.666667e-01 0.000000e+00
8.000000e-01 1.666667e-01 0.000000e+00
8.333333e-01 1.666667e-01 0.000000e+00
8.666667e-01 1.666667e-01 0.000000e+00
9.000000e-01 1.666667e-01 0.000000e+00
9.333333e-01 1.666667e-01 0.000000e+00
9.666667e-01 1.666667e-01 0.000000e+00
1.000000e+00 1.666667e-01 0.000000e+00
0.000000e+00 2.000000e-01 0.000000e+00
3.333333e-02 2.000000e-01 0.000000e+00
6.666667e-02 2.000000e-01 0.000000e+00
1.000000e-01 2.000000e-01 0.000000e+00
1.333333e-01 2.000000e-01 0.000000e+00
1.666667e-01 2.000000e-01 0.000000e+00
2.000000e-01 2.000000e-01 0.000000e+00
2.333333e-01 2.000000e-01 0.000000e+00
2.666667e-01 2.000000e-01 0.000000e+00
3.000000e-01 2.000000e-01 0.000000e+00
3.333333e-01 2.000000e-01 0.000000e+00
3.666667e-01 2.000000e-01 0.000000e+00
4.000000e-01 2.000000e-01 0.000000e+00
4.333333e-01 2.000000e-01 0.000000e+00
4.666667e-01 2.000000e-01 0.000000e+00
5.000000e-01 2.000000e-01 0.000000e+00
5.333333e-01 2.000000e-01 0.000000e+00
5.666667e-01 2.000000e-01 0.000000e+00
6.000000e-01 2.000000e-01 0.000000e+00
6.333333e-01 2.000000e-01 0.000000e+00
6.666667e-01 2.000000e-01 0.000000e+00
7.000000e-01 2.000000e-01 0.000000e+00
7.333333e-01 2.000000e-01 0.000000e+00
7.666667e-01 2.000000e-01 0.000000e+00
8.000000e-01 2.000000e-01 0.000000e+00
8.333333e-01 2.000000e-01 0.000000e+00
8.666667e-01 2.000000e-01 0.000000e+00
9.000000e-01 2.000000e-01 0.000000e+00
9.333333e-01 2.000000e-01 0.000000e+00
9.666667e-01 2.000000e-01 0.000000e+00
1.000000e+00 2.000000e-01 0.000000e+00
0.000000e+00 2.333333e-01 0.000000e+00
3.333333e-02 2.333333e-01 0.000000e+00
6.666667e-02 2.333333e-01 0.000000e+00
1.000000e-01 2.333333e-01 0.000000e+00
1.333333e-01 2.333333e-01 0.000000e+00
1.666667e-01 2.333333e-01 0.000000e+00
2.000000e-01 2.333333e-01 0.000000e+00
2.333333e-01 2.333333e-01 0.000000e+00
2.666667e-01 2.333333e-01 0.000000e+00
3.000000e-01 2.333333e-01 0.000000e+00
3.333333e-01 2.333333e-01 0.000000e+00
3.666667e-01 2.333333e-01 0.000000e+00
4.000000e-01 2.333333e-01 0.000000e+00
4.333333e-01 2.333333e-01 0.000000e+00
4.666667e-01 2.333333e-01 0.000000e+00
5.000000e-01 2.333333e-01 0.000000e+00
5.333333e-01 2.333333e-01 0.000000e+00
5.666667e-01 2.333333e-01 0.000000e+00
6.000000e-01 2.333333e-01 0.000000e+00
6.333333e-01 2.333333e-01 0.000000e+00
6.666667e-01 2.333333e-01 0.000000e+00
7.000000e-01 2.333333e-01 0.000000e+00
7.333333e-01 2.333333e-01 0.000000e+00
7.666667e-01 2.333333e-01 0.000000e+00
8.000000e-01 2.333333e-01 0.000000e+00
8.333333e-01 2.333333e-01 0.000000e+00
8.666667e-01 2.333333e-01 0.000000e+00
9.000000e-01 2.333333e-01 0.000000e+00
9.333333e-01 2.333333e-01 0.000000e+00
9.666667e-01 2.333333e-01 0.000000e+00
1.000000e+00 2.333333e-01 0.000000e+00
0.000000e+00 2.666667e-01 0.000000e+00
3.333333e-02 2.666667e-01 0.000000e+00
6.666667e-02 2.666667e-01 0.000000e+00
1.000000e-01 2.666667e-01 0.000000e+00
1.333333e-01 2.666667e-01 0.000000e+00
1.666667e-01 2.666667e-01 0.000000e+00
[...]
POINT_DATA 961
SCALARS u float
LOOKUP_TABLE default
0.000000e+00
0.000000e+00
0.000000e+00
0.000000e+00
0.000000e+00
0.000000e+00
0.000000e+00
0.000000e+00
0.000000e+00
0.000000e+00
0.000000e+00
0.000000e+00
0.000000e+00
0.000000e+00
0.000000e+00
0.000000e+00
0.000000e+00
0.000000e+00
0.000000e+00
0.000000e+00
0.000000e+00
0.000000e+00
0.000000e+00
0.000000e+00
0.000000e+00
0.000000e+00
0.000000e+00
0.000000e+00
0.000000e+00
0.000000e+00
0.000000e+00
0.000000e+00
1.868414e-03
3.243553e-03
4.330243e-03
5.223352e-03
5.973680e-03
6.611684e-03
7.157177e-03
7.623783e-03
8.021216e-03
8.356527e-03
8.634841e-03
8.859808e-03
9.033878e-03
9.158472e-03
9.234080e-03
9.260299e-03
9.235826e-03
9.158404e-03
9.024718e-03
8.830229e-03
8.568924e-03
8.232933e-03
7.811961e-03
7.292380e-03
6.655734e-03
5.876094e-03
4.914972e-03
3.710418e-03
2.150552e-03
0.000000e+00
0.000000e+00
3.243553e-03
5.818401e-03
7.923523e-03
9.682259e-03
1.117271e-02
1.244643e-02
1.353889e-02
1.447531e-02
1.527407e-02
1.594867e-02
1.650903e-02
1.696223e-02
1.731306e-02
1.756426e-02
1.771677e-02
1.776974e-02
1.772054e-02
1.756467e-02
1.729550e-02
1.690403e-02
1.637835e-02
1.570297e-02
1.485779e-02
1.381648e-02
1.254399e-02
1.099244e-02
9.094063e-03
6.748567e-03
3.800370e-03
0.000000e+00
0.000000e+00
4.330243e-03
7.923523e-03
1.094203e-02
1.350560e-02
1.570034e-02
1.758828e-02
1.921467e-02
2.061301e-02
2.180836e-02
2.281952e-02
2.366042e-02
2.434113e-02
2.486843e-02
2.524621e-02
2.547573e-02
2.555566e-02
2.548203e-02
2.524813e-02
2.484421e-02
2.425702e-02
2.346916e-02
2.245821e-02
2.119534e-02
1.964341e-02
1.775406e-02
1.546335e-02
1.268519e-02
9.301397e-03
5.147971e-03
0.000000e+00
0.000000e+00
5.223352e-03
9.682259e-03
1.350560e-02
1.679956e-02
1.964776e-02
2.211491e-02
2.425080e-02
2.609379e-02
2.767342e-02
2.901226e-02
3.012733e-02
3.103100e-02
3.173163e-02
3.223400e-02
3.253949e-02
3.264623e-02
3.254895e-02
3.223886e-02
3.170327e-02
3.092510e-02
2.988207e-02
2.854573e-02
2.688001e-02
2.483918e-02
2.236508e-02
1.938329e-02
1.579793e-02
1.148506e-02
6.285482e-03
0.000000e+00
0.000000e+00
5.973680e-03
1.117271e-02
1.570034e-02
1.964776e-02
2.309166e-02
2.609481e-02
2.870780e-02
3.097098e-02
3.291631e-02
3.456873e-02
3.594728e-02
3.706593e-02
3.793415e-02
3.855724e-02
3.893658e-02
3.906963e-02
3.894991e-02
3.856668e-02
3.790463e-02
3.694327e-02
3.565619e-02
3.400994e-02
3.196267e-02
2.946228e-02
2.644391e-02
2.282697e-02
1.851133e-02
1.337335e-02
7.262390e-03
0.000000e+00
0.000000e+00
6.611684e-03
1.244643e-02
1.758828e-02
2.211491e-02
2.609481e-02
2.958657e-02
3.263916e-02
3.529295e-02
3.758065e-02
3.952828e-02
4.115599e-02
4.247868e-02
4.350640e-02
4.424470e-02
4.469474e-02
4.485330e-02
4.471267e-02
4.426040e-02
4.347885e-02
4.234466e-02
4.082795e-02
3.889133e-02
3.648857e-02
3.356301e-02
3.004559e-02
2.585247e-02
2.088257e-02
1.501519e-02
8.108487e-03
0.000000e+00
0.000000e+00
7.157177e-03
1.353889e-02
1.921467e-02
2.425080e-02
2.870780e-02
3.263916e-02
3.609105e-02
3.910246e-02
4.170569e-02
4.392690e-02
4.578654e-02
4.729983e-02
4.847701e-02
4.932355e-02
4.984025e-02
5.002315e-02
4.986342e-02
4.934703e-02
4.845439e-02
4.715973e-02
4.543040e-02
4.322594e-02
4.049695e-02
3.718371e-02
3.321467e-02
2.850473e-02
2.295359e-02
1.644439e-02
8.843243e-03
0.000000e+00
0.000000e+00
7.623783e-03
1.447531e-02
2.061301e-02
2.609379e-02
3.097098e-02
3.529295e-02
3.910246e-02
4.243642e-02
4.532597e-02
4.779667e-02
4.986872e-02
5.155717e-02
5.287210e-02
5.381869e-02
5.439723e-02
5.460300e-02
5.442612e-02
5.385120e-02
5.285699e-02
5.141575e-02
4.949268e-02
4.704503e-02
4.402114e-02
4.035937e-02
3.598691e-02
3.081853e-02
2.475555e-02
1.768512e-02
9.480109e-03
0.000000e+00
0.000000e+00
8.021216e-03
1.527407e-02
2.180836e-02
2.767342e-02
3.291631e-02
3.758065e-02
4.170569e-02
4.532597e-02
4.847103e-02
5.116538e-02
5.342856e-02
5.527515e-02
5.671480e-02
5.775222e-02
5.838709e-02
5.861397e-02
5.842198e-02
5.779460e-02
5.670915e-02
5.513637e-02
5.303980e-02
5.037499e-02
4.708880e-02
4.311845e-02
3.839064e-02
3.282068e-02
2.631185e-02
1.875500e-02
1.002870e-02
0.000000e+00
0.000000e+00
8.356527e-03
1.594867e-02
2.281952e-02
2.901226e-02
3.456873e-02
3.952828e-02
4.392690e-02
4.779667e-02
5.116538e-02
5.405629e-02
5.648804e-02
5.847451e-02
6.002476e-02
6.114293e-02
6.182807e-02
6.207400e-02
6.186900e-02
6.119553e-02
6.002980e-02
5.834134e-02
5.609242e-02
5.323745e-02
4.972228e-02
4.548355e-02
4.044796e-02
3.453169e-02
2.764000e-02
1.966701e-02
1.049599e-02
0.000000e+00
0.000000e+00
8.634841e-03
1.650903e-02
2.366042e-02
3.012733e-02
3.594728e-02
4.115599e-02
4.578654e-02
4.986872e-02
5.342856e-02
5.648804e-02
5.906478e-02
6.117189e-02
6.281776e-02
6.400590e-02
6.473476e-02
6.499745e-02
6.478151e-02
6.406858e-02
6.283396e-02
6.104627e-02
5.866684e-02
5.564929e-02
5.193888e-02
4.747199e-02
4.217561e-02
3.596689e-02
2.875290e-02
2.043058e-02
1.088701e-02
0.000000e+00
0.000000e+00
8.859808e-03
1.696223e-02
2.434113e-02
3.103100e-02
3.706593e-02
4.247868e-02
4.729983e-02
5.155717e-02
5.527515e-02
5.847451e-02
6.117189e-02
6.337961e-02
6.510539e-02
6.635216e-02
6.711774e-02
6.739468e-02
6.716987e-02
6.642426e-02
6.513249e-02
6.326244e-02
6.077484e-02
5.762274e-02
5.375109e-02
4.909624e-02
4.358556e-02
3.713716e-02
2.965967e-02
2.105235e-02
1.120530e-02
0.000000e+00
0.000000e+00
9.033878e-03
1.731306e-02
2.486843e-02
3.173163e-02
3.793415e-02
4.350640e-02
4.847701e-02
5.287210e-02
5.671480e-02
6.002476e-02
6.281776e-02
6.510539e-02
6.689479e-02
6.818831e-02
6.898330e-02
6.927176e-02
6.904010e-02
6.826874e-02
6.693180e-02
6.499667e-02
6.242363e-02
5.916541e-02
5.516680e-02
5.036423e-02
4.468549e-02
3.804949e-02
3.036617e-02
2.153657e-02
1.145310e-02
0.000000e+00
0.000000e+00
9.158472e-03
1.756426e-02
2.524621e-02
3.223400e-02
3.855724e-02
4.424470e-02
4.932355e-02
5.381869e-02
5.775222e-02
6.114293e-02
6.400590e-02
6.635216e-02
6.818831e-02
6.951629e-02
7.033302e-02
7.063012e-02
7.039361e-02
6.960354e-02
6.823367e-02
6.625107e-02
6.361575e-02
6.028025e-02
5.618931e-02
5.127951e-02
4.547898e-02
3.870729e-02
3.087531e-02
2.188539e-02
1.163156e-02
0.000000e+00
0.000000e+00
9.234080e-03
1.771677e-02
2.547573e-02
3.253949e-02
3.893658e-02
4.469474e-02
4.984025e-02
5.439723e-02
5.838709e-02
6.182807e-02
6.473476e-02
6.711774e-02
6.898330e-02
7.033302e-02
7.116355e-02
7.146624e-02
7.122687e-02
7.042526e-02
6.903497e-02
6.702288e-02
6.434888e-02
6.096546e-02
5.681736e-02
5.184130e-02
4.596568e-02
3.911049e-02
3.118722e-02
2.209899e-02
1.174081e-02
0.000000e+00
0.000000e+00
9.260299e-03
1.776974e-02
2.555566e-02
3.264623e-02
3.906963e-02
4.485330e-02
5.002315e-02
5.460300e-02
5.861397e-02
6.207400e-02
6.499745e-02
6.739468e-02
6.927176e-02
7.063012e-02
7.146624e-02
7.177136e-02
7.153113e-02
7.072531e-02
6.932739e-02
6.730423e-02
6.461571e-02
6.121436e-02
5.704500e-02
5.204444e-02
4.614126e-02
3.925563e-02
3.129928e-02
2.217562e-02
1.177998e-02
0.000000e+00
0.000000e+00
9.235826e-03
1.772054e-02
2.548203e-02
3.254895e-02
3.894991e-02
4.471267e-02
4.986342e-02
5.442612e-02
5.842198e-02
6.186900e-02
6.478151e-02
6.716987e-02
6.904010e-02
7.039361e-02
7.122687e-02
7.153113e-02
7.129210e-02
7.048958e-02
6.909716e-02
6.708183e-02
6.440360e-02
6.101514e-02
5.686138e-02
5.187923e-02
4.599731e-02
3.913573e-02
3.120611e-02
2.211159e-02
1.174715e-02
0.000000e+00
0.000000e+00
9.158404e-03
1.756467e-02
2.524813e-02
3.223886e-02
3.856668e-02
4.426040e-02
4.934703e-02
5.385120e-02
5.779460e-02
6.119553e-02
6.406858e-02
6.642426e-02
6.826874e-02
6.960354e-02
7.042526e-02
7.072531e-02
7.048958e-02
6.969810e-02
6.832472e-02
6.633671e-02
6.369436e-02
6.035058e-02
5.625052e-02
5.133117e-02
4.552108e-02
3.874010e-02
3.089931e-02
2.190110e-02
1.163936e-02
0.000000e+00
0.000000e+00
9.024718e-03
1.729550e-02
2.484421e-02
3.170327e-02
3.790463e-02
4.347885e-02
4.845439e-02
5.285699e-02
5.670915e-02
6.002980e-02
6.283396e-02
6.513249e-02
6.693180e-02
6.823367e-02
6.903497e-02
6.932739e-02
6.909716e-02
6.832472e-02
6.698435e-02
6.504378e-02
6.246377e-02
5.919765e-02
5.519087e-02
5.038056e-02
4.469513e-02
3.805397e-02
3.036728e-02
2.153608e-02
1.145244e-02
0.000000e+00
0.000000e+00
8.830229e-03
1.690403e-02
2.425702e-02
3.092510e-02
3.694327e-02
4.234466e-02
4.715973e-02
5.141575e-02
5.513637e-02
5.834134e-02
6.104627e-02
6.326244e-02
6.499667e-02
6.625107e-02
6.702288e-02
6.730423e-02
6.708183e-02
6.633671e-02
6.504378e-02
6.317147e-02
6.068124e-02
5.752704e-02
5.365482e-02
4.900197e-02
4.349679e-02
3.705805e-02
2.959472e-02
2.100587e-02
1.118087e-02
0.000000e+00
0.000000e+00
8.568924e-03
1.637835e-02
2.346916e-02
2.988207e-02
3.565619e-02
4.082795e-02
4.543040e-02
4.949268e-02
5.303980e-02
5.609242e-02
5.866684e-02
6.077484e-02
6.242363e-02
6.361575e-02
6.434888e-02
6.461571e-02
6.440360e-02
6.369436e-02
6.246377e-02
6.068124e-02
5.830919e-02
5.530256e-02
5.160807e-02
4.716360e-02
4.189748e-02
3.572783e-02
2.856208e-02
2.029674e-02
1.081752e-02
0.000000e+00
0.000000e+00
8.232933e-03
1.570297e-02
2.245821e-02
2.854573e-02
3.400994e-02
3.889133e-02
4.322594e-02
4.704503e-02
5.037499e-02
5.323745e-02
5.564929e-02
5.762274e-02
5.916541e-02
6.028025e-02
6.096546e-02
6.121436e-02
6.101514e-02
6.035058e-02
5.919765e-02
5.752704e-02
5.530256e-02
5.248051e-02
4.900886e-02
4.482641e-02
3.986180e-02
3.403264e-02
2.724467e-02
1.939124e-02
1.035327e-02
0.000000e+00
0.000000e+00
7.811961e-03
1.485779e-02
2.119534e-02
2.688001e-02
3.196267e-02
3.648857e-02
4.049695e-02
4.402114e-02
4.708880e-02
4.972228e-02
5.193888e-02
5.375109e-02
5.516680e-02
5.618931e-02
5.681736e-02
5.704500e-02
5.686138e-02
5.625052e-02
5.519087e-02
5.365482e-02
5.160807e-02
4.900886e-02
4.580705e-02
4.194297e-02
3.734624e-02
3.193437e-02
2.561147e-02
1.826722e-02
9.776482e-03
0.000000e+00
0.000000e+00
7.292380e-03
1.381648e-02
1.964341e-02
2.483918e-02
2.946228e-02
3.356301e-02
3.718371e-02
4.035937e-02
4.311845e-02
4.548355e-02
4.747199e-02
4.909624e-02
5.036423e-02
5.127951e-02
5.184130e-02
5.204444e-02
5.187923e-02
5.133117e-02
5.038056e-02
4.900197e-02
4.716360e-02
4.482641e-02
4.194297e-02
3.845620e-02
3.429767e-02
2.938570e-02
2.362332e-02
1.689632e-02
9.072084e-03
0.000000e+00
0.000000e+00
6.655734e-03
1.254399e-02
1.775406e-02
2.236508e-02
2.644391e-02
3.004559e-02
3.321467e-02
3.598691e-02
3.839064e-02
4.044796e-02
4.217561e-02
4.358556e-02
4.468549e-02
4.547898e-02
4.596568e-02
4.614126e-02
4.599731e-02
4.552108e-02
4.469513e-02
4.349679e-02
4.189748e-02
3.986180e-02
3.734624e-02
3.429767e-02
3.065122e-02
2.632768e-02
2.123035e-02
1.524163e-02
8.220139e-03
0.000000e+00
0.000000e+00
5.876094e-03
1.099244e-02
1.546335e-02
1.938329e-02
2.282697e-02
2.585247e-02
2.850473e-02
3.081853e-02
3.282068e-02
3.453169e-02
3.596689e-02
3.713716e-02
3.804949e-02
3.870729e-02
3.911049e-02
3.925563e-02
3.913573e-02
3.874010e-02
3.805397e-02
3.705805e-02
3.572783e-02
3.403264e-02
3.193437e-02
2.938570e-02
2.632768e-02
2.268630e-02
1.836799e-02
1.325384e-02
7.193289e-03
0.000000e+00
0.000000e+00
4.914972e-03
9.094063e-03
1.268519e-02
1.579793e-02
1.851133e-02
2.088257e-02
2.295359e-02
2.475555e-02
2.631185e-02
2.764000e-02
2.875290e-02
2.965967e-02
3.036617e-02
3.087531e-02
3.118722e-02
3.129928e-02
3.120611e-02
3.089931e-02
3.036728e-02
2.959472e-02
2.856208e-02
2.724467e-02
2.561147e-02
2.362332e-02
2.123035e-02
1.836799e-02
1.495103e-02
1.086462e-02
5.951824e-03
0.000000e+00
0.000000e+00
3.710418e-03
6.748567e-03
9.301397e-03
1.148506e-02
1.337335e-02
1.501519e-02
1.644439e-02
1.768512e-02
1.875500e-02
1.966701e-02
2.043058e-02
2.105235e-02
2.153657e-02
2.188539e-02
2.209899e-02
2.217562e-02
2.211159e-02
2.190110e-02
2.153608e-02
2.100587e-02
2.029674e-02
1.939124e-02
1.826722e-02
1.689632e-02
1.524163e-02
1.325384e-02
1.086462e-02
7.974819e-03
4.433140e-03
0.000000e+00
0.000000e+00
2.150552e-03
3.800370e-03
5.147971e-03
6.285482e-03
7.262390e-03
8.108487e-03
8.843243e-03
9.480109e-03
1.002870e-02
1.049599e-02
1.088701e-02
1.120530e-02
1.145310e-02
1.163156e-02
1.174081e-02
1.177998e-02
1.174715e-02
1.163936e-02
1.145244e-02
1.118087e-02
1.081752e-02
1.035327e-02
9.776482e-03
9.072084e-03
8.220139e-03
7.193289e-03
5.951824e-03
4.433140e-03
2.526131e-03
0.000000e+00
0.000000e+00
0.000000e+00
0.000000e+00
0.000000e+00
0.000000e+00
0.000000e+00
0.000000e+00
0.000000e+00
0.000000e+00
0.000000e+00
0.000000e+00
0.000000e+00
0.000000e+00
0.000000e+00
0.000000e+00
0.000000e+00
0.000000e+00
0.000000e+00
0.000000e+00
0.000000e+00
0.000000e+00
0.000000e+00
0.000000e+00
0.000000e+00
0.000000e+00
0.000000e+00
0.000000e+00
0.000000e+00
0.000000e+00
0.000000e+00
0.000000e+00
