# vtk DataFile Version 3.0
vtk output
ASCII
DATASET UNSTRUCTURED_GRID
POINTS 961 float
0.000000e+00 0.000000e+00 0.000000e+00
3.333333e-02 0.000000e+00 0.000000e+00
6.666667e-02 0.000000e+00 0.000000e+00
1.000000e-01 0.000000e+00 0.000000e+00
1.333333e-01 0.000000e+00 0.000000e+00
1.666667e-01 0.000000e+00 0.000000e+00
2.000000e-01 0.000000e+00 0.000000e+00
2.333333e-01 0.000000e+00 0.000000e+00
2.666667e-01 0.000000e+00 0.000000e+00
3.000000e-01 0.000000e+00 0.000000e+00
3.333333e-01 0.000000e+00 0.000000e+00
3.666667e-01 0.000000e+00 0.000000e+00
4.000000e-01 0.000000e+00 0.000000e+00
4.333333e-01 0.000000e+00 0.000000e+00
4.666667e-01 0.000000e+00 0.000000e+00
5.000000e-01 0.000000e+00 0.000000e+00
5.333333e-01 0.000000e+00 0.000000e+00
5.666667e-01 0.000000e+00 0.000000e+00
6.000000e-01 0.000000e+00 0.000000e+00
6.333333e-01 0.000000e+00 0.000000e+00
6.666667e-01 0.000000e+00 0.000000e+00
7.000000e-01 0.000000e+00 0.000000e+00
7.333333e-01 0.000000e+00 0.000000e+00
7.666667e-01 0.000000e+00 0.000000e+00
8.000000e-01 0.000000e+00 0.000000e+00
8.333333e-01 0.000000e+00 0.000000e+00
8.666667e-01 0.000000e+00 0.000000e+00
9.000000e-01 0.000000e+00 0.000000e+00
9.333333e-01 0.000000e+00 0.000000e+00
9.666667e-01 0.000000e+00 0.000000e+00
1.000000e+00 0.000000e+00 0.000000e+00
0.000000e+00 3.333333e-02 0.000000e+00
3.333333e-02 3.333333e-02 0.000000e+00
6.666667e-02 3.333333e-02 0.000000e+00
1.000000e-01 3.333333e-02 0.000000e+00
1.333333e-01 3.333333e-02 0.000000e+00
1.666667e-01 3.333333e-02 0.000000e+00
2.000000e-01 3.333333e-02 0.000000e+00
2.333333e-01 3.333333e-02 0.000000e+00
2.666667e-01 3.333333e-02 0.000000e+00
3.000000e-01 3.333333e-02 0.000000e+00
3.333333e-01 3.333333e-02 0.000000e+00
3.666667e-01 3.333333e-02 0.000000e+00
4.000000e-01 3.333333e-02 0.000000e+00
4.333333e-01 3.333333e-02 0.000000e+00
4.666667e-01 3.333333e-02 0.000000e+00
5.000000e-01 3.333333e-02 0.000000e+00
5.333333e-01 3.333333e-02 0.000000e+00
5.666667e-01 3.333333e-02 0.000000e+00
6.000000e-01 3.333333e-02 0.000000e+00
6.333333e-01 3.333333e-02 0.000000e+00
6.666667e-01 3.333333e-02 0.000000e+00
7.000000e-01 3.333333e-02 0.000000e+00
7.333333e-01 3.333333e-02 0.000000e+00
7.666667e-01 3.333333e-02 0.000000e+00
8.000000e-01 3.333333e-02 0.000000e+00
8.333333e-01 3.333333e-02 0.000000e+00
8.666667e-01 3.333333e-02 0.000000e+00
9.000000e-01 3.333333e-02 0.000000e+00
9.333333e-01 3.333333e-02 0.000000e+00
9.666667e-01 3.333333e-02 0.000000e+00
1.000000e+00 3.333333e-02 0.000000e+00
0.000000e+00 6.666667e-02 0.000000e+00
3.333333e-02 6.666667e-02 0.000000e+00
6.666667e-02 6.666667e-02 0.000000e+00
1.000000e-01 6.666667e-02 0.000000e+00
1.333333e-01 6.666667e-02 0.000000e+00
1.666667e-01 6.666667e-02 0.000000e+00
2.000000e-01 6.666667e-02 0.000000e+00
2.333333e-01 6.666667e-02 0.000000e+00
2.666667e-01 6.666667e-02 0.000000e+00
3.000000e-01 6.666667e-02 0.000000e+00
3.333333e-01 6.666667e-02 0.000000e+00
3.666667e-01 6.666667e-02 0.000000e+00
4.000000e-01 6.666667e-02 0.000000e+00
4.333333e-01 6.666667e-02 0.000000e+00
4.666667e-01 6.666667e-02 0.000000e+00
5.000000e-01 6.666667e-02 0.000000e+00
5.333333e-01 6.666667e-02 0.000000e+00
5.666667e-01 6.666667e-02 0.000000e+00
6.000000e-01 6.666667e-02 0.000000e+00
6.333333e-01 6.666667e-02 0.000000e+00
6.666667e-01 6.666667e-02 0.000000e+00
7.000000e-01 6.666667e-02 0.000000e+00
7.333333e-01 6.666667e-02 0.000000e+00
7.666667e-01 6.666667e-02 0.000000e+00
8.000000e-01 6.666667e-02 0.000000e+00
8.333333e-01 6.666667e-02 0.000000e+00
8.666667e-01 6.666667e-02 0.000000e+00
9.000000e-01 6.666667e-02 0.000000e+00
9.333333e-01 6.666667e-02 0.000000e+00
9.666667e-01 6.666667e-02 0.000000e+00
1.000000e+00 6.666667e-02 0.000000e+00
0.000000e+00 1.000000e-01 0.000000e+00
3.333333e-02 1.000000e-01 0.000000e+00
6.666667e-02 1.000000e-01 0.000000e+00
1.000000e-01 1.000000e-01 0.000000e+00
1.333333e-01 1.000000e-01 0.000000e+00
1.666667e-01 1.000000e-01 0.000000e+00
2.000000e-01 1.000000e-01 0.000000e+00
2.333333e-01 1.000000e-01 0.000000e+00
2.666667e-01 1.000000e-01 0.000000e+00
3.000000e-01 1.000000e-01 0.000000e+00
3.333333e-01 1.000000e-01 0.000000e+00
3.666667e-01 1.000000e-01 0.000000e+00
4.000000e-01 1.000000e-01 0.000000e+00
4.333333e-01 1.000000e-01 0.000000e+00
4.666667e-01 1.000000e-01 0.000000e+00
5.000000e-01 1.000000e-01 0.000000e+00
5.333333e-01 1.000000e-01 0.000000e+00
5.666667e-01 1.000000e-01 0.000000e+00
6.000000e-01 1.000000e-01 0.000000e+00
6.333333e-01 1.000000e-01 0.000000e+00
6.666667e-01 1.000000e-01 0.000000e+00
7.000000e-01 1.000000e-01 0.000000e+00
7.333333e-01 1.000000e-01 0.000000e+00
7.666667e-01 1.000000e-01 0.000000e+00
8.000000e-01 1.000000e-01 0.000000e+00
8.333333e-01 1.000000e-01 0.000000e+00
8.666667e-01 1.000000e-01 0.000000e+00
9.000000e-01 1.000000e-01 0.000000e+00
9.333333e-01 1.000000e-01 0.000000e+00
9.666667e-01 1.000000e-01 0.000000e+00
1.000000e+00 1.000000e-01 0.000000e+00
0.000000e+00 1.333333e-01 0.000000e+00
3.333333e-02 1.333333e-01 0.000000e+00
6.666667e-02 1.333333e-01 0.000000e+00
1.000000e-01 1.333333e-01 0.000000e+00
1.333333e-01 1.333333e-01 0.000000e+00
1.666667e-01 1.333333e-01 0.000000e+00
2.000000e-01 1.333333e-01 0.000000e+00
2.333333e-01 1.333333e-01 0.000000e+00
2.666667e-01 1.333333e-01 0.000000e+00
3.000000e-01 1.333333e-01 0.000000e+00
3.333333e-01 1.333333e-01 0.000000e+00
3.666667e-01 1.333333e-01 0.000000e+00
4.000000e-01 1.333333e-01 0.000000e+00
4.333333e-01 1.333333e-01 0.000000e+00
4.666667e-01 1.333333e-01 0.000000e+00
5.000000e-01 1.333333e-01 0.000000e+00
5.333333e-01 1.333333e-01 0.000000e+00
5.666667e-01 1.333333e-01 0.000000e+00
6.000000e-01 1.333333e-01 0.000000e+00
6.333333e-01 1.333333e-01 0.000000e+00
6.666667e-01 1.333333e-01 0.000000e+00
7.000000e-01 1.333333e-01 0.000000e+00
7.333333e-01 1.333333e-01 0.000000e+00
7.666667e-01 1.333333e-01 0.000000e+00
8.000000e-01 1.333333e-01 0.000000e+00
8.333333e-01 1.333333e-01 0.000000e+00
8.666667e-01 1.333333e-01 0.000000e+00
9.000000e-01 1.333333e-01 0.000000e+00
9.333333e-01 1.333333e-01 0.000000e+00
9.666667e-01 1.333333e-01 0.000000e+00
1.000000e+00 1.333333e-01 0.000000e+00
0.000000e+00 1.666667e-01 0.000000e+00
3.333333e-02 1.666667e-01 0.000000e+00
6.666667e-02 1.666667e-01 0.000000e+00
1.000000e-01 1.666667e-01 0.000000e+00
1.333333e-01 1.666667e-01 0.000000e+00
1.666667e-01 1.666667e-01 0.000000e+00
2.000000e-01 1.666667e-01 0.000000e+00
2.333333e-01 1.666667e-01 0.000000e+00
2.666667e-01 1.666667e-01 0.000000e+00
3.000000e-01 1.666667e-01 0.000000e+00
3.333333e-01 1.666667e-01 0.000000e+00
3.666667e-01 1.666667e-01 0.000000e+00
4.000000e-01 1.666667e-01 0.000000e+00
4.333333e-01 1.666667e-01 0.000000e+00
4.666667e-01 1.666667e-01 0.000000e+00
5.000000e-01 1.666667e-01 0.000000e+00
5.333333e-01 1.666667e-01 0.000000e+00
5.666667e-01 1.666667e-01 0.000000e+00
6.000000e-01 1.666667e-01 0.000000e+00
6.333333e-01 1.666667e-01 0.000000e+00
6.666667e-01 1.666667e-01 0.000000e+00
7.000000e-01 1.666667e-01 0.000000e+00
7.333333e-01 1.666667e-01 0.000000e+00
7.666667e-01 1.666667e-01 0.000000e+00
8.000000e-01 1.666667e-01 0.000000e+00
8.333333e-01 1.666667e-01 0.000000e+00
8.666667e-01 1.666667e-01 0.000000e+00
9.000000e-01 1.666667e-01 0.000000e+00
9.333333e-01 1.666667e-01 0.000000e+00
9.666667e-01 1.666667e-01 0.000000e+00
1.000000e+00 1.666667e-01 0.000000e+00
0.000000e+00 2.000000e-01 0.000000e+00
3.333333e-02 2.000000e-01 0.000000e+00
6.666667e-02 2.000000e-01 0.000000e+00
1.000000e-01 2.000000e-01 0.000000e+00
1.333333e-01 2.000000e-01 0.000000e+00
1.666667e-01 2.000000e-01 0.000000e+00
2.000000e-01 2.000000e-01 0.000000e+00
2.333333e-01 2.000000e-01 0.000000e+00
2.666667e-01 2.000000e-01 0.000000e+00
3.000000e-01 2.000000e-01 0.000000e+00
3.333333e-01 2.000000e-01 0.000000e+00
3.666667e-01 2.000000e-01 0.000000e+00
4.000000e-01 2.000000e-01 0.000000e+00
4.333333e-01 2.000000e-01 0.000000e+00
4.666667e-01 2.000000e-01 0.000000e+00
5.000000e-01 2.000000e-01 0.000000e+00
5.333333e-01 2.000000e-01 0.000000e+00
5.666667e-01 2.000000e-01 0.000000e+00
6.000000e-01 2.000000e-01 0.000000e+00
6.333333e-01 2.000000e-01 0.000000e+00
6.666667e-01 2.000000e-01 0.000000e+00
7.000000e-01 2.000000e-01 0.000000e+00
7.333333e-01 2.000000e-01 0.000000e+00
7.666667e-01 2.000000e-01 0.000000e+00
8.000000e-01 2.000000e-01 0.000000e+00
8.333333e-01 2.000000e-01 0.000000e+00
8.666667e-01 2.000000e-01 0.000000e+00
9.000000e-01 2.000000e-01 0.000000e+00
9.333333e-01 2.000000e-01 0.000000e+00
9.666667e-01 2.000000e-01 0.000000e+00
1.000000e+00 2.000000e-01 0.000000e+00
0.000000e+00 2.333333e-01 0.000000e+00
3.333333e-02 2.333333e-01 0.000000e+00
6.666667e-02 2.333333e-01 0.000000e+00
1.000000e-01 2.333333e-01 0.000000e+00
1.333333e-01 2.333333e-01 0.000000e+00
1.666667e-01 2.333333e-01 0.000000e+00
2.000000e-01 2.333333e-01 0.000000e+00
2.333333e-01 2.333333e-01 0.000000e+00
2.666667e-01 2.333333e-01 0.000000e+00
3.000000e-01 2.333333e-01 0.000000e+00
3.333333e-01 2.333333e-01 0.000000e+00
3.666667e-01 2.333333e-01 0.000000e+00
4.000000e-01 2.333333e-01 0.000000e+00
4.333333e-01 2.333333e-01 0.000000e+00
4.666667e-01 2.333333e-01 0.000000e+00
5.000000e-01 2.333333e-01 0.000000e+00
5.333333e-01 2.333333e-01 0.000000e+00
5.666667e-01 2.333333e-01 0.000000e+00
6.000000e-01 2.333333e-01 0.000000e+00
6.333333e-01 2.333333e-01 0.000000e+00
6.666667e-01 2.333333e-01 0.000000e+00
7.000000e-01 2.333333e-01 0.000000e+00
7.333333e-01 2.333333e-01 0.000000e+00
7.666667e-01 2.333333e-01 0.000000e+00
8.000000e-01 2.333333e-01 0.000000e+00
8.333333e-01 2.333333e-01 0.000000e+00
8.666667e-01 2.333333e-01 0.000000e+00
9.000000e-01 2.333333e-01 0.000000e+00
9.333333e-01 2.333333e-01 0.000000e+00
9.666667e-01 2.333333e-01 0.000000e+00
1.000000e+00 2.333333e-01 0.000000e+00
0.000000e+00 2.666667e-01 0.000000e+00
3.333333e-02 2.666667e-01 0.000000e+00
6.666667e-02 2.666667e-01 0.000000e+00
1.000000e-01 2.666667e-01 0.000000e+00
1.333333e-01 2.666667e-01 0.000000e+00
1.666667e-01 2.666667e-01 0.000000e+00
[...]
POINT_DATA 961
SCALARS u float
LOOKUP_TABLE default
0.000000e+00
0.000000e+00
0.000000e+00
0.000000e+00
0.000000e+00
0.000000e+00
0.000000e+00
0.000000e+00
0.000000e+00
0.000000e+00
0.000000e+00
0.000000e+00
0.000000e+00
0.000000e+00
0.000000e+00
0.000000e+00
0.000000e+00
0.000000e+00
0.000000e+00
0.000000e+00
0.000000e+00
0.000000e+00
0.000000e+00
0.000000e+00
0.000000e+00
0.000000e+00
0.000000e+00
0.000000e+00
0.000000e+00
0.000000e+00
0.000000e+00
0.000000e+00
1.868437e-03
3.243600e-03
4.330314e-03
5.223446e-03
5.973797e-03
6.611825e-03
7.157339e-03
7.623967e-03
8.021419e-03
8.356748e-03
8.635078e-03
8.860059e-03
9.034140e-03
9.158743e-03
9.234357e-03
9.260579e-03
9.236106e-03
9.158680e-03
9.024988e-03
8.830489e-03
8.569170e-03
8.233163e-03
7.812172e-03
7.292569e-03
6.655897e-03
5.876229e-03
4.915076e-03
3.710489e-03
2.150588e-03
0.000000e+00
0.000000e+00
3.243600e-03
5.818495e-03
7.923665e-03
9.682449e-03
1.117295e-02
1.244671e-02
1.353922e-02
1.447568e-02
1.527448e-02
1.594912e-02
1.650951e-02
1.696274e-02
1.731359e-02
1.756481e-02
1.771733e-02
1.777030e-02
1.772111e-02
1.756523e-02
1.729605e-02
1.690455e-02
1.637885e-02
1.570344e-02
1.485822e-02
1.381686e-02
1.254432e-02
1.099272e-02
9.094273e-03
6.748711e-03
3.800443e-03
0.000000e+00
0.000000e+00
4.330314e-03
7.923665e-03
1.094224e-02
1.350589e-02
1.570070e-02
1.758871e-02
1.921516e-02
2.061357e-02
2.180898e-02
2.282019e-02
2.366115e-02
2.434190e-02
2.486923e-02
2.524704e-02
2.547658e-02
2.555651e-02
2.548288e-02
2.524898e-02
2.484504e-02
2.425781e-02
2.346991e-02
2.245891e-02
2.119599e-02
1.964399e-02
1.775456e-02
1.546376e-02
1.268550e-02
9.301614e-03
5.148082e-03
0.000000e+00
0.000000e+00
5.223446e-03
9.682449e-03
1.350589e-02
1.679994e-02
1.964824e-02
2.211548e-02
2.425146e-02
2.609454e-02
2.767424e-02
2.901316e-02
3.012830e-02
3.103202e-02
3.173270e-02
3.223510e-02
3.254062e-02
3.264737e-02
3.255009e-02
3.223999e-02
3.170438e-02
3.092616e-02
2.988307e-02
2.854668e-02
2.688088e-02
2.483995e-02
2.236574e-02
1.938384e-02
1.579835e-02
1.148535e-02
6.285631e-03
0.000000e+00
0.000000e+00
5.973797e-03
1.117295e-02
1.570070e-02
1.964824e-02
2.309226e-02
2.609553e-02
2.870863e-02
3.097192e-02
3.291735e-02
3.456986e-02
3.594849e-02
3.706721e-02
3.793549e-02
3.855862e-02
3.893799e-02
3.907106e-02
3.895134e-02
3.856809e-02
3.790600e-02
3.694460e-02
3.565745e-02
3.401111e-02
3.196375e-02
2.946324e-02
2.644474e-02
2.282765e-02
1.851186e-02
1.337371e-02
7.262576e-03
0.000000e+00
0.000000e+00
6.611825e-03
1.244671e-02
1.758871e-02
2.211548e-02
2.609553e-02
2.958742e-02
3.264015e-02
3.529407e-02
3.758188e-02
3.952962e-02
4.115744e-02
4.248021e-02
4.350800e-02
4.424635e-02
4.469643e-02
4.485500e-02
4.471438e-02
4.426208e-02
4.348049e-02
4.234625e-02
4.082946e-02
3.889274e-02
3.648986e-02
3.356416e-02
3.004658e-02
2.585329e-02
2.088321e-02
1.501562e-02
8.108709e-03
0.000000e+00
0.000000e+00
7.157339e-03
1.353922e-02
1.921516e-02
2.425146e-02
2.870863e-02
3.264015e-02
3.609220e-02
3.910375e-02
4.170713e-02
4.392846e-02
4.578822e-02
4.730160e-02
4.847886e-02
4.932546e-02
4.984220e-02
5.002513e-02
4.986539e-02
4.934899e-02
4.845630e-02
4.716157e-02
4.543215e-02
4.322757e-02
4.049844e-02
3.718504e-02
3.321582e-02
2.850568e-02
2.295432e-02
1.644489e-02
8.843500e-03
0.000000e+00
0.000000e+00
7.623967e-03
1.447568e-02
2.061357e-02
2.609454e-02
3.097192e-02
3.529407e-02
3.910375e-02
4.243788e-02
4.532759e-02
4.779843e-02
4.987061e-02
5.155916e-02
5.287419e-02
5.382085e-02
5.439943e-02
5.460523e-02
5.442835e-02
5.385341e-02
5.285914e-02
5.141783e-02
4.949465e-02
4.704686e-02
4.402282e-02
4.036087e-02
3.598820e-02
3.081960e-02
2.475638e-02
1.768569e-02
9.480399e-03
0.000000e+00
0.000000e+00
8.021419e-03
1.527448e-02
2.180898e-02
2.767424e-02
3.291735e-02
3.758188e-02
4.170713e-02
4.532759e-02
4.847282e-02
5.116733e-02
5.343065e-02
5.527736e-02
5.671711e-02
5.775461e-02
5.838954e-02
5.861644e-02
5.842445e-02
5.779703e-02
5.671153e-02
5.513867e-02
5.304197e-02
5.037703e-02
4.709066e-02
4.312011e-02
3.839207e-02
3.282187e-02
2.631277e-02
1.875563e-02
1.002902e-02
0.000000e+00
0.000000e+00
8.356748e-03
1.594912e-02
2.282019e-02
2.901316e-02
3.456986e-02
3.952962e-02
4.392846e-02
4.779843e-02
5.116733e-02
5.405841e-02
5.649031e-02
5.847691e-02
6.002727e-02
6.114552e-02
6.183073e-02
6.207669e-02
6.187168e-02
6.119818e-02
6.003239e-02
5.834384e-02
5.609479e-02
5.323966e-02
4.972431e-02
4.548536e-02
4.044952e-02
3.453299e-02
2.764100e-02
1.966769e-02
1.049633e-02
0.000000e+00
0.000000e+00
8.635078e-03
1.650951e-02
2.366115e-02
3.012830e-02
3.594849e-02
4.115744e-02
4.578822e-02
4.987061e-02
5.343065e-02
5.649031e-02
5.906722e-02
6.117447e-02
6.282045e-02
6.400869e-02
6.473760e-02
6.500033e-02
6.478439e-02
6.407142e-02
6.283674e-02
6.104894e-02
5.866938e-02
5.565166e-02
5.194105e-02
4.747393e-02
4.217728e-02
3.596827e-02
2.875397e-02
2.043131e-02
1.088739e-02
0.000000e+00
0.000000e+00
8.860059e-03
1.696274e-02
2.434190e-02
3.103202e-02
3.706721e-02
4.248021e-02
4.730160e-02
5.155916e-02
5.527736e-02
5.847691e-02
6.117447e-02
6.338234e-02
6.510825e-02
6.635510e-02
6.712076e-02
6.739773e-02
6.717291e-02
6.642727e-02
6.513543e-02
6.326527e-02
6.077753e-02
5.762525e-02
5.375339e-02
4.909829e-02
4.358734e-02
3.713862e-02
2.966080e-02
2.105312e-02
1.120569e-02
0.000000e+00
0.000000e+00
9.034140e-03
1.731359e-02
2.486923e-02
3.173270e-02
3.793549e-02
4.350800e-02
4.847886e-02
5.287419e-02
5.671711e-02
6.002727e-02
6.282045e-02
6.510825e-02
6.689777e-02
6.819139e-02
6.898645e-02
6.927495e-02
6.904328e-02
6.827189e-02
6.693487e-02
6.499963e-02
6.242644e-02
5.916804e-02
5.516920e-02
5.036638e-02
4.468735e-02
3.805103e-02
3.036736e-02
2.153738e-02
1.145351e-02
0.000000e+00
0.000000e+00
9.158743e-03
1.756481e-02
2.524704e-02
3.223510e-02
3.855862e-02
4.424635e-02
4.932546e-02
5.382085e-02
5.775461e-02
6.114552e-02
6.400869e-02
6.635510e-02
6.819139e-02
6.951948e-02
7.033627e-02
7.063341e-02
7.039690e-02
6.960679e-02
6.823684e-02
6.625413e-02
6.361865e-02
6.028296e-02
5.619180e-02
5.128173e-02
4.548090e-02
3.870887e-02
3.087653e-02
2.188623e-02
1.163199e-02
0.000000e+00
0.000000e+00
9.234357e-03
1.771733e-02
2.547658e-02
3.254062e-02
3.893799e-02
4.469643e-02
4.984220e-02
5.439943e-02
5.838954e-02
6.183073e-02
6.473760e-02
6.712076e-02
6.898645e-02
7.033627e-02
7.116687e-02
7.146961e-02
7.123023e-02
7.042859e-02
6.903821e-02
6.702601e-02
6.435185e-02
6.096823e-02
5.681990e-02
5.184357e-02
4.596764e-02
3.911211e-02
3.118847e-02
2.209984e-02
1.174125e-02
0.000000e+00
0.000000e+00
9.260579e-03
1.777030e-02
2.555651e-02
3.264737e-02
3.907106e-02
4.485500e-02
5.002513e-02
5.460523e-02
5.861644e-02
6.207669e-02
6.500033e-02
6.739773e-02
6.927495e-02
7.063341e-02
7.146961e-02
7.177476e-02
7.153453e-02
7.072867e-02
6.933067e-02
6.730739e-02
6.461871e-02
6.121716e-02
5.704756e-02
5.204673e-02
4.614324e-02
3.925727e-02
3.130055e-02
2.217649e-02
1.178042e-02
0.000000e+00
0.000000e+00
9.236106e-03
1.772111e-02
2.548288e-02
3.255009e-02
3.895134e-02
4.471438e-02
4.986539e-02
5.442835e-02
5.842445e-02
6.187168e-02
6.478439e-02
6.717291e-02
6.904328e-02
7.039690e-02
7.123023e-02
7.153453e-02
7.129550e-02
7.049294e-02
6.910044e-02
6.708499e-02
6.440661e-02
6.101794e-02
5.686395e-02
5.188153e-02
4.599929e-02
3.913737e-02
3.120737e-02
2.211245e-02
1.174759e-02
0.000000e+00
0.000000e+00
9.158680e-03
1.756523e-02
2.524898e-02
3.223999e-02
3.856809e-02
4.426208e-02
4.934899e-02
5.385341e-02
5.779703e-02
6.119818e-02
6.407142e-02
6.642727e-02
6.827189e-02
6.960679e-02
7.042859e-02
7.072867e-02
7.049294e-02
6.970142e-02
6.832796e-02
6.633983e-02
6.369732e-02
6.035335e-02
5.625306e-02
5.133344e-02
4.552304e-02
3.874171e-02
3.090056e-02
2.190195e-02
1.163980e-02
0.000000e+00
0.000000e+00
9.024988e-03
1.729605e-02
2.484504e-02
3.170438e-02
3.790600e-02
4.348049e-02
4.845630e-02
5.285914e-02
5.671153e-02
6.003239e-02
6.283674e-02
6.513543e-02
6.693487e-02
6.823684e-02
6.903821e-02
6.933067e-02
6.910044e-02
6.832796e-02
6.698751e-02
6.504683e-02
6.246667e-02
5.920036e-02
5.519335e-02
5.038277e-02
4.469704e-02
3.805555e-02
3.036850e-02
2.153691e-02
1.145287e-02
0.000000e+00
0.000000e+00
8.830489e-03
1.690455e-02
2.425781e-02
3.092616e-02
3.694460e-02
4.234625e-02
4.716157e-02
5.141783e-02
5.513867e-02
5.834384e-02
6.104894e-02
6.326527e-02
6.499963e-02
6.625413e-02
6.702601e-02
6.730739e-02
6.708499e-02
6.633983e-02
6.504683e-02
6.317441e-02
6.068403e-02
5.752964e-02
5.365720e-02
4.900410e-02
4.349863e-02
3.705958e-02
2.959590e-02
2.100667e-02
1.118128e-02
0.000000e+00
0.000000e+00
8.569170e-03
1.637885e-02
2.346991e-02
2.988307e-02
3.565745e-02
4.082946e-02
4.543215e-02
4.949465e-02
5.304197e-02
5.609479e-02
5.866938e-02
6.077753e-02
6.242644e-02
6.361865e-02
6.435185e-02
6.461871e-02
6.440661e-02
6.369732e-02
6.246667e-02
6.068403e-02
5.831184e-02
5.530503e-02
5.161033e-02
4.716563e-02
4.189923e-02
3.572928e-02
2.856320e-02
2.029750e-02
1.081791e-02
0.000000e+00
0.000000e+00
8.233163e-03
1.570344e-02
2.245891e-02
2.854668e-02
3.401111e-02
3.889274e-02
4.322757e-02
4.704686e-02
5.037703e-02
5.323966e-02
5.565166e-02
5.762525e-02
5.916804e-02
6.028296e-02
6.096823e-02
6.121716e-02
6.101794e-02
6.035335e-02
5.920036e-02
5.752964e-02
5.530503e-02
5.248282e-02
4.901098e-02
4.482829e-02
3.986343e-02
3.403399e-02
2.724572e-02
1.939195e-02
1.035364e-02
0.000000e+00
0.000000e+00
7.812172e-03
1.485822e-02
2.119599e-02
2.688088e-02
3.196375e-02
3.648986e-02
4.049844e-02
4.402282e-02
4.709066e-02
4.972431e-02
5.194105e-02
5.375339e-02
5.516920e-02
5.619180e-02
5.681990e-02
5.704756e-02
5.686395e-02
5.625306e-02
5.519335e-02
5.365720e-02
5.161033e-02
4.901098e-02
4.580898e-02
4.194470e-02
3.734773e-02
3.193560e-02
2.561242e-02
1.826787e-02
9.776816e-03
0.000000e+00
0.000000e+00
7.292569e-03
1.381686e-02
1.964399e-02
2.483995e-02
2.946324e-02
3.356416e-02
3.718504e-02
4.036087e-02
4.312011e-02
4.548536e-02
4.747393e-02
4.909829e-02
5.036638e-02
5.128173e-02
5.184357e-02
5.204673e-02
5.188153e-02
5.133344e-02
5.038277e-02
4.900410e-02
4.716563e-02
4.482829e-02
4.194470e-02
3.845774e-02
3.429900e-02
2.938680e-02
2.362417e-02
1.689690e-02
9.072382e-03
0.000000e+00
0.000000e+00
6.655897e-03
1.254432e-02
1.775456e-02
2.236574e-02
2.644474e-02
3.004658e-02
3.321582e-02
3.598820e-02
3.839207e-02
4.044952e-02
4.217728e-02
4.358734e-02
4.468735e-02
4.548090e-02
4.596764e-02
4.614324e-02
4.599929e-02
4.552304e-02
4.469704e-02
4.349863e-02
4.189923e-02
3.986343e-02
3.734773e-02
3.429900e-02
3.065237e-02
2.632863e-02
2.123108e-02
1.524214e-02
8.220397e-03
0.000000e+00
0.000000e+00
5.876229e-03
1.099272e-02
1.546376e-02
1.938384e-02
2.282765e-02
2.585329e-02
2.850568e-02
3.081960e-02
3.282187e-02
3.453299e-02
3.596827e-02
3.713862e-02
3.805103e-02
3.870887e-02
3.911211e-02
3.925727e-02
3.913737e-02
3.874171e-02
3.805555e-02
3.705958e-02
3.572928e-02
3.403399e-02
3.193560e-02
2.938680e-02
2.632863e-02
2.268709e-02
1.836860e-02
1.325426e-02
7.193502e-03
0.000000e+00
0.000000e+00
4.915076e-03
9.094273e-03
1.268550e-02
1.579835e-02
1.851186e-02
2.088321e-02
2.295432e-02
2.475638e-02
2.631277e-02
2.764100e-02
2.875397e-02
2.966080e-02
3.036736e-02
3.087653e-02
3.118847e-02
3.130055e-02
3.120737e-02
3.090056e-02
3.036850e-02
2.959590e-02
2.856320e-02
2.724572e-02
2.561242e-02
2.362417e-02
2.123108e-02
1.836860e-02
1.495150e-02
1.086494e-02
5.951989e-03
0.000000e+00
0.000000e+00
3.710489e-03
6.748711e-03
9.301614e-03
1.148535e-02
1.337371e-02
1.501562e-02
1.644489e-02
1.768569e-02
1.875563e-02
1.966769e-02
2.043131e-02
2.105312e-02
2.153738e-02
2.188623e-02
2.209984e-02
2.217649e-02
2.211245e-02
2.190195e-02
2.153691e-02
2.100667e-02
2.029750e-02
1.939195e-02
1.826787e-02
1.689690e-02
1.524214e-02
1.325426e-02
1.086494e-02
7.975039e-03
4.433253e-03
0.000000e+00
0.000000e+00
2.150588e-03
3.800443e-03
5.148082e-03
6.285631e-03
7.262576e-03
8.108709e-03
8.843500e-03
9.480399e-03
1.002902e-02
1.049633e-02
1.088739e-02
1.120569e-02
1.145351e-02
1.163199e-02
1.174125e-02
1.178042e-02
1.174759e-02
1.163980e-02
1.145287e-02
1.118128e-02
1.081791e-02
1.035364e-02
9.776816e-03
9.072382e-03
8.220397e-03
7.193502e-03
5.951989e-03
4.433253e-03
2.526189e-03
0.000000e+00
0.000000e+00
0.000000e+00
0.000000e+00
0.000000e+00
0.000000e+00
0.000000e+00
0.000000e+00
0.000000e+00
0.000000e+00
0.000000e+00
0.000000e+00
0.000000e+00
0.000000e+00
0.000000e+00
0.000000e+00
0.000000e+00
0.000000e+00
0.000000e+00
0.000000e+00
0.000000e+00
0.000000e+00
0.000000e+00
0.000000e+00
0.000000e+00
0.000000e+00
0.000000e+00
0.000000e+00
0.000000e+00
0.000000e+00
0.000000e+00
0.000000e+00
