# vtk DataFile Version 3.0
vtk output
ASCII
DATASET UNSTRUCTURED_GRID
POINTS 961 float
0.000000e+00 0.000000e+00 0.000000e+00
3.333333e-02 0.000000e+00 0.000000e+00
6.666667e-02 0.000000e+00 0.000000e+00
1.000000e-01 0.000000e+00 0.000000e+00
1.333333e-01 0.000000e+00 0.000000e+00
1.666667e-01 0.000000e+00 0.000000e+00
2.000000e-01 0.000000e+00 0.000000e+00
2.333333e-01 0.000000e+00 0.000000e+00
2.666667e-01 0.000000e+00 0.000000e+00
3.000000e-01 0.000000e+00 0.000000e+00
3.333333e-01 0.000000e+00 0.000000e+00
3.666667e-01 0.000000e+00 0.000000e+00
4.000000e-01 0.000000e+00 0.000000e+00
4.333333e-01 0.000000e+00 0.000000e+00
4.666667e-01 0.000000e+00 0.000000e+00
5.000000e-01 0.000000e+00 0.000000e+00
5.333333e-01 0.000000e+00 0.000000e+00
5.666667e-01 0.000000e+00 0.000000e+00
6.000000e-01 0.000000e+00 0.000000e+00
6.333333e-01 0.000000e+00 0.000000e+00
6.666667e-01 0.000000e+00 0.000000e+00
7.000000e-01 0.000000e+00 0.000000e+00
7.333333e-01 0.000000e+00 0.000000e+00
7.666667e-01 0.000000e+00 0.000000e+00
8.000000e-01 0.000000e+00 0.000000e+00
8.333333e-01 0.000000e+00 0.000000e+00
8.666667e-01 0.000000e+00 0.000000e+00
9.000000e-01 0.000000e+00 0.000000e+00
9.333333e-01 0.000000e+00 0.000000e+00
9.666667e-01 0.000000e+00 0.000000e+00
1.000000e+00 0.000000e+00 0.000000e+00
0.000000e+00 3.333333e-02 0.000000e+00
3.333333e-02 3.333333e-02 0.000000e+00
6.666667e-02 3.333333e-02 0.000000e+00
1.000000e-01 3.333333e-02 0.000000e+00
1.333333e-01 3.333333e-02 0.000000e+00
1.666667e-01 3.333333e-02 0.000000e+00
2.000000e-01 3.333333e-02 0.000000e+00
2.333333e-01 3.333333e-02 0.000000e+00
2.666667e-01 3.333333e-02 0.000000e+00
3.000000e-01 3.333333e-02 0.000000e+00
3.333333e-01 3.333333e-02 0.000000e+00
3.666667e-01 3.333333e-02 0.000000e+00
4.000000e-01 3.333333e-02 0.000000e+00
4.333333e-01 3.333333e-02 0.000000e+00
4.666667e-01 3.333333e-02 0.000000e+00
5.000000e-01 3.333333e-02 0.000000e+00
5.333333e-01 3.333333e-02 0.000000e+00
5.666667e-01 3.333333e-02 0.000000e+00
6.000000e-01 3.333333e-02 0.000000e+00
6.333333e-01 3.333333e-02 0.000000e+00
6.666667e-01 3.333333e-02 0.000000e+00
7.000000e-01 3.333333e-02 0.000000e+00
7.333333e-01 3.333333e-02 0.000000e+00
7.666667e-01 3.333333e-02 0.000000e+00
8.000000e-01 3.333333e-02 0.000000e+00
8.333333e-01 3.333333e-02 0.000000e+00
8.666667e-01 3.333333e-02 0.000000e+00
9.000000e-01 3.333333e-02 0.000000e+00
9.333333e-01 3.333333e-02 0.000000e+00
9.666667e-01 3.333333e-02 0.000000e+00
1.000000e+00 3.333333e-02 0.000000e+00
0.000000e+00 6.666667e-02 0.000000e+00
3.333333e-02 6.666667e-02 0.000000e+00
6.666667e-02 6.666667e-02 0.000000e+00
1.000000e-01 6.666667e-02 0.000000e+00
1.333333e-01 6.666667e-02 0.000000e+00
1.666667e-01 6.666667e-02 0.000000e+00
2.000000e-01 6.666667e-02 0.000000e+00
2.333333e-01 6.666667e-02 0.000000e+00
2.666667e-01 6.666667e-02 0.000000e+00
3.000000e-01 6.666667e-02 0.000000e+00
3.333333e-01 6.666667e-02 0.000000e+00
3.666667e-01 6.666667e-02 0.000000e+00
4.000000e-01 6.666667e-02 0.000000e+00
4.333333e-01 6.666667e-02 0.000000e+00
4.666667e-01 6.666667e-02 0.000000e+00
5.000000e-01 6.666667e-02 0.000000e+00
5.333333e-01 6.666667e-02 0.000000e+00
5.666667e-01 6.666667e-02 0.000000e+00
6.000000e-01 6.666667e-02 0.000000e+00
6.333333e-01 6.666667e-02 0.000000e+00
6.666667e-01 6.666667e-02 0.000000e+00
7.000000e-01 6.666667e-02 0.000000e+00
7.333333e-01 6.666667e-02 0.000000e+00
7.666667e-01 6.666667e-02 0.000000e+00
8.000000e-01 6.666667e-02 0.000000e+00
8.333333e-01 6.666667e-02 0.000000e+00
8.666667e-01 6.666667e-02 0.000000e+00
9.000000e-01 6.666667e-02 0.000000e+00
9.333333e-01 6.666667e-02 0.000000e+00
9.666667e-01 6.666667e-02 0.000000e+00
1.000000e+00 6.666667e-02 0.000000e+00
0.000000e+00 1.000000e-01 0.000000e+00
3.333333e-02 1.000000e-01 0.000000e+00
6.666667e-02 1.000000e-01 0.000000e+00
1.000000e-01 1.000000e-01 0.000000e+00
1.333333e-01 1.000000e-01 0.000000e+00
1.666667e-01 1.000000e-01 0.000000e+00
2.000000e-01 1.000000e-01 0.000000e+00
2.333333e-01 1.000000e-01 0.000000e+00
2.666667e-01 1.000000e-01 0.000000e+00
3.000000e-01 1.000000e-01 0.000000e+00
3.333333e-01 1.000000e-01 0.000000e+00
3.666667e-01 1.000000e-01 0.000000e+00
4.000000e-01 1.000000e-01 0.000000e+00
4.333333e-01 1.000000e-01 0.000000e+00
4.666667e-01 1.000000e-01 0.000000e+00
5.000000e-01 1.000000e-01 0.000000e+00
5.333333e-01 1.000000e-01 0.000000e+00
5.666667e-01 1.000000e-01 0.000000e+00
6.000000e-01 1.000000e-01 0.000000e+00
6.333333e-01 1.000000e-01 0.000000e+00
6.666667e-01 1.000000e-01 0.000000e+00
7.000000e-01 1.000000e-01 0.000000e+00
7.333333e-01 1.000000e-01 0.000000e+00
7.666667e-01 1.000000e-01 0.000000e+00
8.000000e-01 1.000000e-01 0.000000e+00
8.333333e-01 1.000000e-01 0.000000e+00
8.666667e-01 1.000000e-01 0.000000e+00
9.000000e-01 1.000000e-01 0.000000e+00
9.333333e-01 1.000000e-01 0.000000e+00
9.666667e-01 1.000000e-01 0.000000e+00
1.000000e+00 1.000000e-01 0.000000e+00
0.000000e+00 1.333333e-01 0.000000e+00
3.333333e-02 1.333333e-01 0.000000e+00
6.666667e-02 1.333333e-01 0.000000e+00
1.000000e-01 1.333333e-01 0.000000e+00
1.333333e-01 1.333333e-01 0.000000e+00
1.666667e-01 1.333333e-01 0.000000e+00
2.000000e-01 1.333333e-01 0.000000e+00
2.333333e-01 1.333333e-01 0.000000e+00
2.666667e-01 1.333333e-01 0.000000e+00
3.000000e-01 1.333333e-01 0.000000e+00
3.333333e-01 1.333333e-01 0.000000e+00
3.666667e-01 1.333333e-01 0.000000e+00
4.000000e-01 1.333333e-01 0.000000e+00
4.333333e-01 1.333333e-01 0.000000e+00
4.666667e-01 1.333333e-01 0.000000e+00
5.000000e-01 1.333333e-01 0.000000e+00
5.333333e-01 1.333333e-01 0.000000e+00
5.666667e-01 1.333333e-01 0.000000e+00
6.000000e-01 1.333333e-01 0.000000e+00
6.333333e-01 1.333333e-01 0.000000e+00
6.666667e-01 1.333333e-01 0.000000e+00
7.000000e-01 1.333333e-01 0.000000e+00
7.333333e-01 1.333333e-01 0.000000e+00
7.666667e-01 1.333333e-01 0.000000e+00
8.000000e-01 1.333333e-01 0.000000e+00
8.333333e-01 1.333333e-01 0.000000e+00
8.666667e-01 1.333333e-01 0.000000e+00
9.000000e-01 1.333333e-01 0.000000e+00
9.333333e-01 1.333333e-01 0.000000e+00
9.666667e-01 1.333333e-01 0.000000e+00
1.000000e+00 1.333333e-01 0.000000e+00
0.000000e+00 1.666667e-01 0.000000e+00
3.333333e-02 1.666667e-01 0.000000e+00
6.666667e-02 1.666667e-01 0.000000e+00
1.000000e-01 1.666667e-01 0.000000e+00
1.333333e-01 1.666667e-01 0.000000e+00
1.666667e-01 1.666667e-01 0.000000e+00
2.000000e-01 1.666667e-01 0.000000e+00
2.333333e-01 1.666667e-01 0.000000e+00
2.666667e-01 1.666667e-01 0.000000e+00
3.000000e-01 1.666667e-01 0.000000e+00
3.333333e-01 1.666667e-01 0.000000e+00
3.666667e-01 1.666667e-01 0.000000e+00
4.000000e-01 1.666667e-01 0.000000e+00
4.333333e-01 1.666667e-01 0.000000e+00
4.666667e-01 1.666667e-01 0.000000e+00
5.000000e-01 1.666667e-01 0.000000e+00
5.333333e-01 1.666667e-01 0.000000e+00
5.666667e-01 1.666667e-01 0.000000e+00
6.000000e-01 1.666667e-01 0.000000e+00
6.333333e-01 1.666667e-01 0.000000e+00
6.666667e-01 1.666667e-01 0.000000e+00
7.000000e-01 1.666667e-01 0.000000e+00
7.333333e-01 1.666667e-01 0.000000e+00
7.666667e-01 1.666667e-01 0.000000e+00
8.000000e-01 1.666667e-01 0.000000e+00
8.333333e-01 1.666667e-01 0.000000e+00
8.666667e-01 1.666667e-01 0.000000e+00
9.000000e-01 1.666667e-01 0.000000e+00
9.333333e-01 1.666667e-01 0.000000e+00
9.666667e-01 1.666667e-01 0.000000e+00
1.000000e+00 1.666667e-01 0.000000e+00
0.000000e+00 2.000000e-01 0.000000e+00
3.333333e-02 2.000000e-01 0.000000e+00
6.666667e-02 2.000000e-01 0.000000e+00
1.000000e-01 2.000000e-01 0.000000e+00
1.333333e-01 2.000000e-01 0.000000e+00
1.666667e-01 2.000000e-01 0.000000e+00
2.000000e-01 2.000000e-01 0.000000e+00
2.333333e-01 2.000000e-01 0.000000e+00
2.666667e-01 2.000000e-01 0.000000e+00
3.000000e-01 2.000000e-01 0.000000e+00
3.333333e-01 2.000000e-01 0.000000e+00
3.666667e-01 2.000000e-01 0.000000e+00
4.000000e-01 2.000000e-01 0.000000e+00
4.333333e-01 2.000000e-01 0.000000e+00
4.666667e-01 2.000000e-01 0.000000e+00
5.000000e-01 2.000000e-01 0.000000e+00
5.333333e-01 2.000000e-01 0.000000e+00
5.666667e-01 2.000000e-01 0.000000e+00
6.000000e-01 2.000000e-01 0.000000e+00
6.333333e-01 2.000000e-01 0.000000e+00
6.666667e-01 2.000000e-01 0.000000e+00
7.000000e-01 2.000000e-01 0.000000e+00
7.333333e-01 2.000000e-01 0.000000e+00
7.666667e-01 2.000000e-01 0.000000e+00
8.000000e-01 2.000000e-01 0.000000e+00
8.333333e-01 2.000000e-01 0.000000e+00
8.666667e-01 2.000000e-01 0.000000e+00
9.000000e-01 2.000000e-01 0.000000e+00
9.333333e-01 2.000000e-01 0.000000e+00
9.666667e-01 2.000000e-01 0.000000e+00
1.000000e+00 2.000000e-01 0.000000e+00
0.000000e+00 2.333333e-01 0.000000e+00
3.333333e-02 2.333333e-01 0.000000e+00
6.666667e-02 2.333333e-01 0.000000e+00
1.000000e-01 2.333333e-01 0.000000e+00
1.333333e-01 2.333333e-01 0.000000e+00
1.666667e-01 2.333333e-01 0.000000e+00
2.000000e-01 2.333333e-01 0.000000e+00
2.333333e-01 2.333333e-01 0.000000e+00
2.666667e-01 2.333333e-01 0.000000e+00
3.000000e-01 2.333333e-01 0.000000e+00
3.333333e-01 2.333333e-01 0.000000e+00
3.666667e-01 2.333333e-01 0.000000e+00
4.000000e-01 2.333333e-01 0.000000e+00
4.333333e-01 2.333333e-01 0.000000e+00
4.666667e-01 2.333333e-01 0.000000e+00
5.000000e-01 2.333333e-01 0.000000e+00
5.333333e-01 2.333333e-01 0.000000e+00
5.666667e-01 2.333333e-01 0.000000e+00
6.000000e-01 2.333333e-01 0.000000e+00
6.333333e-01 2.333333e-01 0.000000e+00
6.666667e-01 2.333333e-01 0.000000e+00
7.000000e-01 2.333333e-01 0.000000e+00
7.333333e-01 2.333333e-01 0.000000e+00
7.666667e-01 2.333333e-01 0.000000e+00
8.000000e-01 2.333333e-01 0.000000e+00
8.333333e-01 2.333333e-01 0.000000e+00
8.666667e-01 2.333333e-01 0.000000e+00
9.000000e-01 2.333333e-01 0.000000e+00
9.333333e-01 2.333333e-01 0.000000e+00
9.666667e-01 2.333333e-01 0.000000e+00
1.000000e+00 2.333333e-01 0.000000e+00
0.000000e+00 2.666667e-01 0.000000e+00
3.333333e-02 2.666667e-01 0.000000e+00
6.666667e-02 2.666667e-01 0.000000e+00
1.000000e-01 2.666667e-01 0.000000e+00
1.333333e-01 2.666667e-01 0.000000e+00
1.666667e-01 2.666667e-01 0.000000e+00
[...]
POINT_DATA 961
SCALARS u float
LOOKUP_TABLE default
0.000000e+00
0.000000e+00
0.000000e+00
0.000000e+00
0.000000e+00
0.000000e+00
0.000000e+00
0.000000e+00
0.000000e+00
0.000000e+00
0.000000e+00
0.000000e+00
0.000000e+00
0.000000e+00
0.000000e+00
0.000000e+00
0.000000e+00
0.000000e+00
0.000000e+00
0.000000e+00
0.000000e+00
0.000000e+00
0.000000e+00
0.000000e+00
0.000000e+00
0.000000e+00
0.000000e+00
0.000000e+00
0.000000e+00
0.000000e+00
0.000000e+00
0.000000e+00
1.868438e-03
3.243601e-03
4.330316e-03
5.223449e-03
5.973801e-03
6.611829e-03
7.157344e-03
7.623973e-03
8.021426e-03
8.356755e-03
8.635086e-03
8.860067e-03
9.034148e-03
9.158751e-03
9.234366e-03
9.260588e-03
9.236115e-03
9.158689e-03
9.024996e-03
8.830498e-03
8.569178e-03
8.233171e-03
7.812179e-03
7.292575e-03
6.655902e-03
5.876233e-03
4.915080e-03
3.710491e-03
2.150590e-03
0.000000e+00
0.000000e+00
3.243601e-03
5.818498e-03
7.923670e-03
9.682455e-03
1.117295e-02
1.244672e-02
1.353923e-02
1.447570e-02
1.527449e-02
1.594913e-02
1.650952e-02
1.696276e-02
1.731360e-02
1.756483e-02
1.771735e-02
1.777032e-02
1.772113e-02
1.756524e-02
1.729606e-02
1.690457e-02
1.637886e-02
1.570345e-02
1.485823e-02
1.381687e-02
1.254433e-02
1.099273e-02
9.094280e-03
6.748715e-03
3.800446e-03
0.000000e+00
0.000000e+00
4.330316e-03
7.923670e-03
1.094225e-02
1.350590e-02
1.570071e-02
1.758872e-02
1.921518e-02
2.061359e-02
2.180900e-02
2.282022e-02
2.366117e-02
2.434192e-02
2.486925e-02
2.524707e-02
2.547661e-02
2.555654e-02
2.548291e-02
2.524901e-02
2.484507e-02
2.425784e-02
2.346994e-02
2.245893e-02
2.119601e-02
1.964401e-02
1.775457e-02
1.546378e-02
1.268551e-02
9.301621e-03
5.148086e-03
0.000000e+00
0.000000e+00
5.223449e-03
9.682455e-03
1.350590e-02
1.679995e-02
1.964826e-02
2.211550e-02
2.425148e-02
2.609457e-02
2.767427e-02
2.901319e-02
3.012833e-02
3.103206e-02
3.173274e-02
3.223514e-02
3.254066e-02
3.264741e-02
3.255012e-02
3.224002e-02
3.170441e-02
3.092619e-02
2.988311e-02
2.854671e-02
2.688090e-02
2.483997e-02
2.236576e-02
1.938386e-02
1.579837e-02
1.148536e-02
6.285636e-03
0.000000e+00
0.000000e+00
5.973801e-03
1.117295e-02
1.570071e-02
1.964826e-02
2.309228e-02
2.609555e-02
2.870865e-02
3.097195e-02
3.291738e-02
3.456989e-02
3.594853e-02
3.706725e-02
3.793553e-02
3.855867e-02
3.893803e-02
3.907111e-02
3.895138e-02
3.856814e-02
3.790605e-02
3.694464e-02
3.565749e-02
3.401115e-02
3.196379e-02
2.946327e-02
2.644477e-02
2.282768e-02
1.851188e-02
1.337372e-02
7.262582e-03
0.000000e+00
0.000000e+00
6.611829e-03
1.244672e-02
1.758872e-02
2.211550e-02
2.609555e-02
2.958745e-02
3.264019e-02
3.529411e-02
3.758192e-02
3.952967e-02
4.115749e-02
4.248026e-02
4.350805e-02
4.424641e-02
4.469648e-02
4.485506e-02
4.471443e-02
4.426214e-02
4.348055e-02
4.234630e-02
4.082951e-02
3.889278e-02
3.648990e-02
3.356420e-02
3.004661e-02
2.585332e-02
2.088323e-02
1.501564e-02
8.108716e-03
0.000000e+00
0.000000e+00
7.157344e-03
1.353923e-02
1.921518e-02
2.425148e-02
2.870865e-02
3.264019e-02
3.609223e-02
3.910379e-02
4.170717e-02
4.392851e-02
4.578827e-02
4.730166e-02
4.847892e-02
4.932552e-02
4.984226e-02
5.002519e-02
4.986546e-02
4.934905e-02
4.845636e-02
4.716163e-02
4.543220e-02
4.322762e-02
4.049848e-02
3.718508e-02
3.321586e-02
2.850571e-02
2.295435e-02
1.644491e-02
8.843508e-03
0.000000e+00
0.000000e+00
7.623973e-03
1.447570e-02
2.061359e-02
2.609457e-02
3.097195e-02
3.529411e-02
3.910379e-02
4.243793e-02
4.532764e-02
4.779849e-02
4.987067e-02
5.155923e-02
5.287425e-02
5.382092e-02
5.439950e-02
5.460530e-02
5.442842e-02
5.385348e-02
5.285921e-02
5.141789e-02
4.949472e-02
4.704692e-02
4.402287e-02
4.036092e-02
3.598825e-02
3.081964e-02
2.475641e-02
1.768570e-02
9.480408e-03
0.000000e+00
0.000000e+00
8.021426e-03
1.527449e-02
2.180900e-02
2.767427e-02
3.291738e-02
3.758192e-02
4.170717e-02
4.532764e-02
4.847287e-02
5.116739e-02
5.343072e-02
5.527744e-02
5.671719e-02
5.775468e-02
5.838961e-02
5.861652e-02
5.842453e-02
5.779711e-02
5.671160e-02
5.513874e-02
5.304204e-02
5.037709e-02
4.709073e-02
4.312017e-02
3.839212e-02
3.282191e-02
2.631280e-02
1.875565e-02
1.002903e-02
0.000000e+00
0.000000e+00
8.356755e-03
1.594913e-02
2.282022e-02
2.901319e-02
3.456989e-02
3.952967e-02
4.392851e-02
4.779849e-02
5.116739e-02
5.405848e-02
5.649039e-02
5.847699e-02
6.002736e-02
6.114561e-02
6.183081e-02
6.207677e-02
6.187177e-02
6.119826e-02
6.003247e-02
5.834392e-02
5.609487e-02
5.323973e-02
4.972437e-02
4.548542e-02
4.044957e-02
3.453303e-02
2.764103e-02
1.966771e-02
1.049635e-02
0.000000e+00
0.000000e+00
8.635086e-03
1.650952e-02
2.366117e-02
3.012833e-02
3.594853e-02
4.115749e-02
4.578827e-02
4.987067e-02
5.343072e-02
5.649039e-02
5.906730e-02
6.117455e-02
6.282054e-02
6.400878e-02
6.473770e-02
6.500042e-02
6.478448e-02
6.407151e-02
6.283683e-02
6.104903e-02
5.866947e-02
5.565174e-02
5.194112e-02
4.747399e-02
4.217734e-02
3.596832e-02
2.875400e-02
2.043133e-02
1.088740e-02
0.000000e+00
0.000000e+00
8.860067e-03
1.696276e-02
2.434192e-02
3.103206e-02
3.706725e-02
4.248026e-02
4.730166e-02
5.155923e-02
5.527744e-02
5.847699e-02
6.117455e-02
6.338243e-02
6.510834e-02
6.635520e-02
6.712086e-02
6.739783e-02
6.717301e-02
6.642737e-02
6.513552e-02
6.326537e-02
6.077762e-02
5.762534e-02
5.375346e-02
4.909836e-02
4.358740e-02
3.713867e-02
2.966084e-02
2.105315e-02
1.120570e-02
0.000000e+00
0.000000e+00
9.034148e-03
1.731360e-02
2.486925e-02
3.173274e-02
3.793553e-02
4.350805e-02
4.847892e-02
5.287425e-02
5.671719e-02
6.002736e-02
6.282054e-02
6.510834e-02
6.689787e-02
6.819149e-02
6.898655e-02
6.927505e-02
6.904339e-02
6.827199e-02
6.693497e-02
6.499973e-02
6.242653e-02
5.916813e-02
5.516928e-02
5.036644e-02
4.468741e-02
3.805108e-02
3.036739e-02
2.153741e-02
1.145352e-02
0.000000e+00
0.000000e+00
9.158751e-03
1.756483e-02
2.524707e-02
3.223514e-02
3.855867e-02
4.424641e-02
4.932552e-02
5.382092e-02
5.775468e-02
6.114561e-02
6.400878e-02
6.635520e-02
6.819149e-02
6.951958e-02
7.033638e-02
7.063352e-02
7.039700e-02
6.960690e-02
6.823695e-02
6.625423e-02
6.361875e-02
6.028305e-02
5.619188e-02
5.128180e-02
4.548096e-02
3.870892e-02
3.087657e-02
2.188625e-02
1.163200e-02
0.000000e+00
0.000000e+00
9.234366e-03
1.771735e-02
2.547661e-02
3.254066e-02
3.893803e-02
4.469648e-02
4.984226e-02
5.439950e-02
5.838961e-02
6.183081e-02
6.473770e-02
6.712086e-02
6.898655e-02
7.033638e-02
7.116698e-02
7.146971e-02
7.123034e-02
7.042869e-02
6.903832e-02
6.702611e-02
6.435195e-02
6.096832e-02
5.681998e-02
5.184364e-02
4.596771e-02
3.911216e-02
3.118851e-02
2.209987e-02
1.174127e-02
0.000000e+00
0.000000e+00
9.260588e-03
1.777032e-02
2.555654e-02
3.264741e-02
3.907111e-02
4.485506e-02
5.002519e-02
5.460530e-02
5.861652e-02
6.207677e-02
6.500042e-02
6.739783e-02
6.927505e-02
7.063352e-02
7.146971e-02
7.177487e-02
7.153464e-02
7.072878e-02
6.933077e-02
6.730749e-02
6.461881e-02
6.121725e-02
5.704765e-02
5.204681e-02
4.614331e-02
3.925732e-02
3.130059e-02
2.217652e-02
1.178043e-02
0.000000e+00
0.000000e+00
9.236115e-03
1.772113e-02
2.548291e-02
3.255012e-02
3.895138e-02
4.471443e-02
4.986546e-02
5.442842e-02
5.842453e-02
6.187177e-02
6.478448e-02
6.717301e-02
6.904339e-02
7.039700e-02
7.123034e-02
7.153464e-02
7.129561e-02
7.049304e-02
6.910055e-02
6.708509e-02
6.440670e-02
6.101803e-02
5.686403e-02
5.188160e-02
4.599935e-02
3.913742e-02
3.120741e-02
2.211248e-02
1.174761e-02
0.000000e+00
0.000000e+00
9.158689e-03
1.756524e-02
2.524901e-02
3.224002e-02
3.856814e-02
4.426214e-02
4.934905e-02
5.385348e-02
5.779711e-02
6.119826e-02
6.407151e-02
6.642737e-02
6.827199e-02
6.960690e-02
7.042869e-02
7.072878e-02
7.049304e-02
6.970152e-02
6.832807e-02
6.633993e-02
6.369742e-02
6.035344e-02
5.625314e-02
5.133351e-02
4.552310e-02
3.874177e-02
3.090060e-02
2.190198e-02
1.163981e-02
0.000000e+00
0.000000e+00
9.024996e-03
1.729606e-02
2.484507e-02
3.170441e-02
3.790605e-02
4.348055e-02
4.845636e-02
5.285921e-02
5.671160e-02
6.003247e-02
6.283683e-02
6.513552e-02
6.693497e-02
6.823695e-02
6.903832e-02
6.933077e-02
6.910055e-02
6.832807e-02
6.698762e-02
6.504693e-02
6.246676e-02
5.920045e-02
5.519343e-02
5.038284e-02
4.469710e-02
3.805560e-02
3.036854e-02
2.153694e-02
1.145288e-02
0.000000e+00
0.000000e+00
8.830498e-03
1.690457e-02
2.425784e-02
3.092619e-02
3.694464e-02
4.234630e-02
4.716163e-02
5.141789e-02
5.513874e-02
5.834392e-02
6.104903e-02
6.326537e-02
6.499973e-02
6.625423e-02
6.702611e-02
6.730749e-02
6.708509e-02
6.633993e-02
6.504693e-02
6.317451e-02
6.068412e-02
5.752973e-02
5.365728e-02
4.900417e-02
4.349869e-02
3.705963e-02
2.959594e-02
2.100670e-02
1.118129e-02
0.000000e+00
0.000000e+00
8.569178e-03
1.637886e-02
2.346994e-02
2.988311e-02
3.565749e-02
4.082951e-02
4.543220e-02
4.949472e-02
5.304204e-02
5.609487e-02
5.866947e-02
6.077762e-02
6.242653e-02
6.361875e-02
6.435195e-02
6.461881e-02
6.440670e-02
6.369742e-02
6.246676e-02
6.068412e-02
5.831193e-02
5.530511e-02
5.161041e-02
4.716569e-02
4.189929e-02
3.572933e-02
2.856324e-02
2.029753e-02
1.081792e-02
0.000000e+00
0.000000e+00
8.233171e-03
1.570345e-02
2.245893e-02
2.854671e-02
3.401115e-02
3.889278e-02
4.322762e-02
4.704692e-02
5.037709e-02
5.323973e-02
5.565174e-02
5.762534e-02
5.916813e-02
6.028305e-02
6.096832e-02
6.121725e-02
6.101803e-02
6.035344e-02
5.920045e-02
5.752973e-02
5.530511e-02
5.248289e-02
4.901105e-02
4.482836e-02
3.986348e-02
3.403404e-02
2.724575e-02
1.939198e-02
1.035365e-02
0.000000e+00
0.000000e+00
7.812179e-03
1.485823e-02
2.119601e-02
2.688090e-02
3.196379e-02
3.648990e-02
4.049848e-02
4.402287e-02
4.709073e-02
4.972437e-02
5.194112e-02
5.375346e-02
5.516928e-02
5.619188e-02
5.681998e-02
5.704765e-02
5.686403e-02
5.625314e-02
5.519343e-02
5.365728e-02
5.161041e-02
4.901105e-02
4.580905e-02
4.194475e-02
3.734778e-02
3.193564e-02
2.561245e-02
1.826790e-02
9.776827e-03
0.000000e+00
0.000000e+00
7.292575e-03
1.381687e-02
1.964401e-02
2.483997e-02
2.946327e-02
3.356420e-02
3.718508e-02
4.036092e-02
4.312017e-02
4.548542e-02
4.747399e-02
4.909836e-02
5.036644e-02
5.128180e-02
5.184364e-02
5.204681e-02
5.188160e-02
5.133351e-02
5.038284e-02
4.900417e-02
4.716569e-02
4.482836e-02
4.194475e-02
3.845779e-02
3.429905e-02
2.938684e-02
2.362420e-02
1.689692e-02
9.072391e-03
0.000000e+00
0.000000e+00
6.655902e-03
1.254433e-02
1.775457e-02
2.236576e-02
2.644477e-02
3.004661e-02
3.321586e-02
3.598825e-02
3.839212e-02
4.044957e-02
4.217734e-02
4.358740e-02
4.468741e-02
4.548096e-02
4.596771e-02
4.614331e-02
4.599935e-02
4.552310e-02
4.469710e-02
4.349869e-02
4.189929e-02
3.986348e-02
3.734778e-02
3.429905e-02
3.065241e-02
2.632866e-02
2.123111e-02
1.524215e-02
8.220405e-03
0.000000e+00
0.000000e+00
5.876233e-03
1.099273e-02
1.546378e-02
1.938386e-02
2.282768e-02
2.585332e-02
2.850571e-02
3.081964e-02
3.282191e-02
3.453303e-02
3.596832e-02
3.713867e-02
3.805108e-02
3.870892e-02
3.911216e-02
3.925732e-02
3.913742e-02
3.874177e-02
3.805560e-02
3.705963e-02
3.572933e-02
3.403404e-02
3.193564e-02
2.938684e-02
2.632866e-02
2.268711e-02
1.836862e-02
1.325427e-02
7.193509e-03
0.000000e+00
0.000000e+00
4.915080e-03
9.094280e-03
1.268551e-02
1.579837e-02
1.851188e-02
2.088323e-02
2.295435e-02
2.475641e-02
2.631280e-02
2.764103e-02
2.875400e-02
2.966084e-02
3.036739e-02
3.087657e-02
3.118851e-02
3.130059e-02
3.120741e-02
3.090060e-02
3.036854e-02
2.959594e-02
2.856324e-02
2.724575e-02
2.561245e-02
2.362420e-02
2.123111e-02
1.836862e-02
1.495151e-02
1.086495e-02
5.951994e-03
0.000000e+00
0.000000e+00
3.710491e-03
6.748715e-03
9.301621e-03
1.148536e-02
1.337372e-02
1.501564e-02
1.644491e-02
1.768570e-02
1.875565e-02
1.966771e-02
2.043133e-02
2.105315e-02
2.153741e-02
2.188625e-02
2.209987e-02
2.217652e-02
2.211248e-02
2.190198e-02
2.153694e-02
2.100670e-02
2.029753e-02
1.939198e-02
1.826790e-02
1.689692e-02
1.524215e-02
1.325427e-02
1.086495e-02
7.975046e-03
4.433256e-03
0.000000e+00
0.000000e+00
2.150590e-03
3.800446e-03
5.148086e-03
6.285636e-03
7.262582e-03
8.108716e-03
8.843508e-03
9.480408e-03
1.002903e-02
1.049635e-02
1.088740e-02
1.120570e-02
1.145352e-02
1.163200e-02
1.174127e-02
1.178043e-02
1.174761e-02
1.163981e-02
1.145288e-02
1.118129e-02
1.081792e-02
1.035365e-02
9.776827e-03
9.072391e-03
8.220405e-03
7.193509e-03
5.951994e-03
4.433256e-03
2.526190e-03
0.000000e+00
0.000000e+00
0.000000e+00
0.000000e+00
0.000000e+00
0.000000e+00
0.000000e+00
0.000000e+00
0.000000e+00
0.000000e+00
0.000000e+00
0.000000e+00
0.000000e+00
0.000000e+00
0.000000e+00
0.000000e+00
0.000000e+00
0.000000e+00
0.000000e+00
0.000000e+00
0.000000e+00
0.000000e+00
0.000000e+00
0.000000e+00
0.000000e+00
0.000000e+00
0.000000e+00
0.000000e+00
0.000000e+00
0.000000e+00
0.000000e+00
0.000000e+00
