# vtk DataFile Version 3.0
vtk output
ASCII
DATASET UNSTRUCTURED_GRID
POINTS 961 float
0.000000e+00 0.000000e+00 0.000000e+00
3.333333e-02 0.000000e+00 0.000000e+00
6.666667e-02 0.000000e+00 0.000000e+00
1.000000e-01 0.000000e+00 0.000000e+00
1.333333e-01 0.000000e+00 0.000000e+00
1.666667e-01 0.000000e+00 0.000000e+00
2.000000e-01 0.000000e+00 0.000000e+00
2.333333e-01 0.000000e+00 0.000000e+00
2.666667e-01 0.000000e+00 0.000000e+00
3.000000e-01 0.000000e+00 0.000000e+00
3.333333e-01 0.000000e+00 0.000000e+00
3.666667e-01 0.000000e+00 0.000000e+00
4.000000e-01 0.000000e+00 0.000000e+00
4.333333e-01 0.000000e+00 0.000000e+00
4.666667e-01 0.000000e+00 0.000000e+00
5.000000e-01 0.000000e+00 0.000000e+00
5.333333e-01 0.000000e+00 0.000000e+00
5.666667e-01 0.000000e+00 0.000000e+00
6.000000e-01 0.000000e+00 0.000000e+00
6.333333e-01 0.000000e+00 0.000000e+00
6.666667e-01 0.000000e+00 0.000000e+00
7.000000e-01 0.000000e+00 0.000000e+00
7.333333e-01 0.000000e+00 0.000000e+00
7.666667e-01 0.000000e+00 0.000000e+00
8.000000e-01 0.000000e+00 0.000000e+00
8.333333e-01 0.000000e+00 0.000000e+00
8.666667e-01 0.000000e+00 0.000000e+00
9.000000e-01 0.000000e+00 0.000000e+00
9.333333e-01 0.000000e+00 0.000000e+00
9.666667e-01 0.000000e+00 0.000000e+00
1.000000e+00 0.000000e+00 0.000000e+00
0.000000e+00 3.333333e-02 0.000000e+00
3.333333e-02 3.333333e-02 0.000000e+00
6.666667e-02 3.333333e-02 0.000000e+00
1.000000e-01 3.333333e-02 0.000000e+00
1.333333e-01 3.333333e-02 0.000000e+00
1.666667e-01 3.333333e-02 0.000000e+00
2.000000e-01 3.333333e-02 0.000000e+00
2.333333e-01 3.333333e-02 0.000000e+00
2.666667e-01 3.333333e-02 0.000000e+00
3.000000e-01 3.333333e-02 0.000000e+00
3.333333e-01 3.333333e-02 0.000000e+00
3.666667e-01 3.333333e-02 0.000000e+00
4.000000e-01 3.333333e-02 0.000000e+00
4.333333e-01 3.333333e-02 0.000000e+00
4.666667e-01 3.333333e-02 0.000000e+00
5.000000e-01 3.333333e-02 0.000000e+00
5.333333e-01 3.333333e-02 0.000000e+00
5.666667e-01 3.333333e-02 0.000000e+00
6.000000e-01 3.333333e-02 0.000000e+00
6.333333e-01 3.333333e-02 0.000000e+00
6.666667e-01 3.333333e-02 0.000000e+00
7.000000e-01 3.333333e-02 0.000000e+00
7.333333e-01 3.333333e-02 0.000000e+00
7.666667e-01 3.333333e-02 0.000000e+00
8.000000e-01 3.333333e-02 0.000000e+00
8.333333e-01 3.333333e-02 0.000000e+00
8.666667e-01 3.333333e-02 0.000000e+00
9.000000e-01 3.333333e-02 0.000000e+00
9.333333e-01 3.333333e-02 0.000000e+00
9.666667e-01 3.333333e-02 0.000000e+00
1.000000e+00 3.333333e-02 0.000000e+00
0.000000e+00 6.666667e-02 0.000000e+00
3.333333e-02 6.666667e-02 0.000000e+00
6.666667e-02 6.666667e-02 0.000000e+00
1.000000e-01 6.666667e-02 0.000000e+00
1.333333e-01 6.666667e-02 0.000000e+00
1.666667e-01 6.666667e-02 0.000000e+00
2.000000e-01 6.666667e-02 0.000000e+00
2.333333e-01 6.666667e-02 0.000000e+00
2.666667e-01 6.666667e-02 0.000000e+00
3.000000e-01 6.666667e-02 0.000000e+00
3.333333e-01 6.666667e-02 0.000000e+00
3.666667e-01 6.666667e-02 0.000000e+00
4.000000e-01 6.666667e-02 0.000000e+00
4.333333e-01 6.666667e-02 0.000000e+00
4.666667e-01 6.666667e-02 0.000000e+00
5.000000e-01 6.666667e-02 0.000000e+00
5.333333e-01 6.666667e-02 0.000000e+00
5.666667e-01 6.666667e-02 0.000000e+00
6.000000e-01 6.666667e-02 0.000000e+00
6.333333e-01 6.666667e-02 0.000000e+00
6.666667e-01 6.666667e-02 0.000000e+00
7.000000e-01 6.666667e-02 0.000000e+00
7.333333e-01 6.666667e-02 0.000000e+00
7.666667e-01 6.666667e-02 0.000000e+00
8.000000e-01 6.666667e-02 0.000000e+00
8.333333e-01 6.666667e-02 0.000000e+00
8.666667e-01 6.666667e-02 0.000000e+00
9.000000e-01 6.666667e-02 0.000000e+00
9.333333e-01 6.666667e-02 0.000000e+00
9.666667e-01 6.666667e-02 0.000000e+00
1.000000e+00 6.666667e-02 0.000000e+00
0.000000e+00 1.000000e-01 0.000000e+00
3.333333e-02 1.000000e-01 0.000000e+00
6.666667e-02 1.000000e-01 0.000000e+00
1.000000e-01 1.000000e-01 0.000000e+00
1.333333e-01 1.000000e-01 0.000000e+00
1.666667e-01 1.000000e-01 0.000000e+00
2.000000e-01 1.000000e-01 0.000000e+00
2.333333e-01 1.000000e-01 0.000000e+00
2.666667e-01 1.000000e-01 0.000000e+00
3.000000e-01 1.000000e-01 0.000000e+00
3.333333e-01 1.000000e-01 0.000000e+00
3.666667e-01 1.000000e-01 0.000000e+00
4.000000e-01 1.000000e-01 0.000000e+00
4.333333e-01 1.000000e-01 0.000000e+00
4.666667e-01 1.000000e-01 0.000000e+00
5.000000e-01 1.000000e-01 0.000000e+00
5.333333e-01 1.000000e-01 0.000000e+00
5.666667e-01 1.000000e-01 0.000000e+00
6.000000e-01 1.000000e-01 0.000000e+00
6.333333e-01 1.000000e-01 0.000000e+00
6.666667e-01 1.000000e-01 0.000000e+00
7.000000e-01 1.000000e-01 0.000000e+00
7.333333e-01 1.000000e-01 0.000000e+00
7.666667e-01 1.000000e-01 0.000000e+00
8.000000e-01 1.000000e-01 0.000000e+00
8.333333e-01 1.000000e-01 0.000000e+00
8.666667e-01 1.000000e-01 0.000000e+00
9.000000e-01 1.000000e-01 0.000000e+00
9.333333e-01 1.000000e-01 0.000000e+00
9.666667e-01 1.000000e-01 0.000000e+00
1.000000e+00 1.000000e-01 0.000000e+00
0.000000e+00 1.333333e-01 0.000000e+00
3.333333e-02 1.333333e-01 0.000000e+00
6.666667e-02 1.333333e-01 0.000000e+00
1.000000e-01 1.333333e-01 0.000000e+00
1.333333e-01 1.333333e-01 0.000000e+00
1.666667e-01 1.333333e-01 0.000000e+00
2.000000e-01 1.333333e-01 0.000000e+00
2.333333e-01 1.333333e-01 0.000000e+00
2.666667e-01 1.333333e-01 0.000000e+00
3.000000e-01 1.333333e-01 0.000000e+00
3.333333e-01 1.333333e-01 0.000000e+00
3.666667e-01 1.333333e-01 0.000000e+00
4.000000e-01 1.333333e-01 0.000000e+00
4.333333e-01 1.333333e-01 0.000000e+00
4.666667e-01 1.333333e-01 0.000000e+00
5.000000e-01 1.333333e-01 0.000000e+00
5.333333e-01 1.333333e-01 0.000000e+00
5.666667e-01 1.333333e-01 0.000000e+00
6.000000e-01 1.333333e-01 0.000000e+00
6.333333e-01 1.333333e-01 0.000000e+00
6.666667e-01 1.333333e-01 0.000000e+00
7.000000e-01 1.333333e-01 0.000000e+00
7.333333e-01 1.333333e-01 0.000000e+00
7.666667e-01 1.333333e-01 0.000000e+00
8.000000e-01 1.333333e-01 0.000000e+00
8.333333e-01 1.333333e-01 0.000000e+00
8.666667e-01 1.333333e-01 0.000000e+00
9.000000e-01 1.333333e-01 0.000000e+00
9.333333e-01 1.333333e-01 0.000000e+00
9.666667e-01 1.333333e-01 0.000000e+00
1.000000e+00 1.333333e-01 0.000000e+00
0.000000e+00 1.666667e-01 0.000000e+00
3.333333e-02 1.666667e-01 0.000000e+00
6.666667e-02 1.666667e-01 0.000000e+00
1.000000e-01 1.666667e-01 0.000000e+00
1.333333e-01 1.666667e-01 0.000000e+00
1.666667e-01 1.666667e-01 0.000000e+00
2.000000e-01 1.666667e-01 0.000000e+00
2.333333e-01 1.666667e-01 0.000000e+00
2.666667e-01 1.666667e-01 0.000000e+00
3.000000e-01 1.666667e-01 0.000000e+00
3.333333e-01 1.666667e-01 0.000000e+00
3.666667e-01 1.666667e-01 0.000000e+00
4.000000e-01 1.666667e-01 0.000000e+00
4.333333e-01 1.666667e-01 0.000000e+00
4.666667e-01 1.666667e-01 0.000000e+00
5.000000e-01 1.666667e-01 0.000000e+00
5.333333e-01 1.666667e-01 0.000000e+00
5.666667e-01 1.666667e-01 0.000000e+00
6.000000e-01 1.666667e-01 0.000000e+00
6.333333e-01 1.666667e-01 0.000000e+00
6.666667e-01 1.666667e-01 0.000000e+00
7.000000e-01 1.666667e-01 0.000000e+00
7.333333e-01 1.666667e-01 0.000000e+00
7.666667e-01 1.666667e-01 0.000000e+00
8.000000e-01 1.666667e-01 0.000000e+00
8.333333e-01 1.666667e-01 0.000000e+00
8.666667e-01 1.666667e-01 0.000000e+00
9.000000e-01 1.666667e-01 0.000000e+00
9.333333e-01 1.666667e-01 0.000000e+00
9.666667e-01 1.666667e-01 0.000000e+00
1.000000e+00 1.666667e-01 0.000000e+00
0.000000e+00 2.000000e-01 0.000000e+00
3.333333e-02 2.000000e-01 0.000000e+00
6.666667e-02 2.000000e-01 0.000000e+00
1.000000e-01 2.000000e-01 0.000000e+00
1.333333e-01 2.000000e-01 0.000000e+00
1.666667e-01 2.000000e-01 0.000000e+00
2.000000e-01 2.000000e-01 0.000000e+00
2.333333e-01 2.000000e-01 0.000000e+00
2.666667e-01 2.000000e-01 0.000000e+00
3.000000e-01 2.000000e-01 0.000000e+00
3.333333e-01 2.000000e-01 0.000000e+00
3.666667e-01 2.000000e-01 0.000000e+00
4.000000e-01 2.000000e-01 0.000000e+00
4.333333e-01 2.000000e-01 0.000000e+00
4.666667e-01 2.000000e-01 0.000000e+00
5.000000e-01 2.000000e-01 0.000000e+00
5.333333e-01 2.000000e-01 0.000000e+00
5.666667e-01 2.000000e-01 0.000000e+00
6.000000e-01 2.000000e-01 0.000000e+00
6.333333e-01 2.000000e-01 0.000000e+00
6.666667e-01 2.000000e-01 0.000000e+00
7.000000e-01 2.000000e-01 0.000000e+00
7.333333e-01 2.000000e-01 0.000000e+00
7.666667e-01 2.000000e-01 0.000000e+00
8.000000e-01 2.000000e-01 0.000000e+00
8.333333e-01 2.000000e-01 0.000000e+00
8.666667e-01 2.000000e-01 0.000000e+00
9.000000e-01 2.000000e-01 0.000000e+00
9.333333e-01 2.000000e-01 0.000000e+00
9.666667e-01 2.000000e-01 0.000000e+00
1.000000e+00 2.000000e-01 0.000000e+00
0.000000e+00 2.333333e-01 0.000000e+00
3.333333e-02 2.333333e-01 0.000000e+00
6.666667e-02 2.333333e-01 0.000000e+00
1.000000e-01 2.333333e-01 0.000000e+00
1.333333e-01 2.333333e-01 0.000000e+00
1.666667e-01 2.333333e-01 0.000000e+00
2.000000e-01 2.333333e-01 0.000000e+00
2.333333e-01 2.333333e-01 0.000000e+00
2.666667e-01 2.333333e-01 0.000000e+00
3.000000e-01 2.333333e-01 0.000000e+00
3.333333e-01 2.333333e-01 0.000000e+00
3.666667e-01 2.333333e-01 0.000000e+00
4.000000e-01 2.333333e-01 0.000000e+00
4.333333e-01 2.333333e-01 0.000000e+00
4.666667e-01 2.333333e-01 0.000000e+00
5.000000e-01 2.333333e-01 0.000000e+00
5.333333e-01 2.333333e-01 0.000000e+00
5.666667e-01 2.333333e-01 0.000000e+00
6.000000e-01 2.333333e-01 0.000000e+00
6.333333e-01 2.333333e-01 0.000000e+00
6.666667e-01 2.333333e-01 0.000000e+00
7.000000e-01 2.333333e-01 0.000000e+00
7.333333e-01 2.333333e-01 0.000000e+00
7.666667e-01 2.333333e-01 0.000000e+00
8.000000e-01 2.333333e-01 0.000000e+00
8.333333e-01 2.333333e-01 0.000000e+00
8.666667e-01 2.333333e-01 0.000000e+00
9.000000e-01 2.333333e-01 0.000000e+00
9.333333e-01 2.333333e-01 0.000000e+00
9.666667e-01 2.333333e-01 0.000000e+00
1.000000e+00 2.333333e-01 0.000000e+00
0.000000e+00 2.666667e-01 0.000000e+00
3.333333e-02 2.666667e-01 0.000000e+00
6.666667e-02 2.666667e-01 0.000000e+00
1.000000e-01 2.666667e-01 0.000000e+00
1.333333e-01 2.666667e-01 0.000000e+00
1.666667e-01 2.666667e-01 0.000000e+00
[...]
POINT_DATA 961
SCALARS u float
LOOKUP_TABLE default
0.000000e+00
0.000000e+00
0.000000e+00
0.000000e+00
0.000000e+00
0.000000e+00
0.000000e+00
0.000000e+00
0.000000e+00
0.000000e+00
0.000000e+00
0.000000e+00
0.000000e+00
0.000000e+00
0.000000e+00
0.000000e+00
0.000000e+00
0.000000e+00
0.000000e+00
0.000000e+00
0.000000e+00
0.000000e+00
0.000000e+00
0.000000e+00
0.000000e+00
0.000000e+00
0.000000e+00
0.000000e+00
0.000000e+00
0.000000e+00
0.000000e+00
0.000000e+00
1.848407e-03
3.203122e-03
4.269206e-03
5.141773e-03
5.871871e-03
6.490207e-03
7.016836e-03
7.465623e-03
7.846512e-03
8.166775e-03
8.431743e-03
8.645261e-03
8.809956e-03
8.927410e-03
8.998254e-03
9.022205e-03
8.998062e-03
8.923642e-03
8.795683e-03
8.609672e-03
8.359593e-03
8.037547e-03
7.633177e-03
7.132764e-03
6.517725e-03
5.761976e-03
4.826838e-03
3.650138e-03
2.119745e-03
0.000000e+00
0.000000e+00
3.203122e-03
5.736692e-03
7.800171e-03
9.517391e-03
1.096696e-02
1.220093e-02
1.325526e-02
1.415567e-02
1.492099e-02
1.556518e-02
1.609856e-02
1.652862e-02
1.686050e-02
1.709727e-02
1.724014e-02
1.728853e-02
1.724000e-02
1.709019e-02
1.683260e-02
1.645826e-02
1.595527e-02
1.530808e-02
1.449646e-02
1.349388e-02
1.226507e-02
1.076181e-02
8.915940e-03
6.626739e-03
3.738107e-03
0.000000e+00
0.000000e+00
4.269206e-03
7.800171e-03
1.075581e-02
1.325670e-02
1.538972e-02
1.721764e-02
1.878646e-02
2.013043e-02
2.127529e-02
2.224052e-02
2.304069e-02
2.368646e-02
2.418514e-02
2.454113e-02
2.475611e-02
2.482911e-02
2.475648e-02
2.453175e-02
2.414531e-02
2.358398e-02
2.283038e-02
2.186199e-02
2.064979e-02
1.915635e-02
1.733294e-02
1.511513e-02
1.241626e-02
9.117464e-03
5.053968e-03
0.000000e+00
0.000000e+00
5.141773e-03
9.517391e-03
1.325670e-02
1.646689e-02
1.923258e-02
2.161950e-02
2.367844e-02
2.544875e-02
2.696087e-02
2.823831e-02
2.929893e-02
3.015588e-02
3.081825e-02
3.129148e-02
3.157753e-02
3.167500e-02
3.157906e-02
3.128121e-02
3.076899e-02
3.002540e-02
2.902818e-02
2.774874e-02
2.615075e-02
2.418810e-02
2.180215e-02
1.891782e-02
1.543845e-02
1.123919e-02
6.159828e-03
0.000000e+00
0.000000e+00
5.871871e-03
1.096696e-02
1.538972e-02
1.923258e-02
2.257351e-02
2.547652e-02
2.799346e-02
3.016590e-02
3.202697e-02
3.360274e-02
3.491330e-02
3.597363e-02
3.679408e-02
3.738078e-02
3.773584e-02
3.785733e-02
3.773927e-02
3.737132e-02
3.673844e-02
3.582026e-02
3.459035e-02
3.301512e-02
3.105241e-02
2.864961e-02
2.574128e-02
2.224598e-02
1.806264e-02
1.306647e-02
7.105554e-03
0.000000e+00
0.000000e+00
6.490207e-03
1.220093e-02
1.721764e-02
2.161950e-02
2.547652e-02
2.884877e-02
3.178674e-02
3.433223e-02
3.651935e-02
3.837549e-02
3.992206e-02
4.117512e-02
4.214582e-02
4.284068e-02
4.326172e-02
4.340647e-02
4.326783e-02
4.283379e-02
4.208705e-02
4.100439e-02
3.955593e-02
3.770407e-02
3.540222e-02
3.259316e-02
2.920705e-02
2.515911e-02
2.034711e-02
1.464896e-02
7.921322e-03
0.000000e+00
0.000000e+00
7.016836e-03
1.325526e-02
1.878646e-02
2.367844e-02
2.799346e-02
3.178674e-02
3.510617e-02
3.799242e-02
4.047944e-02
4.259490e-02
4.436075e-02
4.579356e-02
4.690483e-02
4.770116e-02
4.818434e-02
4.835128e-02
4.819383e-02
4.769851e-02
4.684610e-02
4.561099e-02
4.396053e-02
4.185402e-02
3.924164e-02
3.606303e-02
3.224574e-02
2.770356e-02
2.233486e-02
1.602123e-02
8.626978e-03
0.000000e+00
0.000000e+00
7.465623e-03
1.415567e-02
2.013043e-02
2.544875e-02
3.016590e-02
3.433223e-02
3.799242e-02
4.118530e-02
4.394383e-02
4.629532e-02
4.826162e-02
4.985933e-02
5.109994e-02
5.198992e-02
5.253065e-02
5.271842e-02
5.254410e-02
5.199294e-02
5.104406e-02
4.966996e-02
4.783580e-02
4.549857e-02
4.260614e-02
3.909613e-02
3.489473e-02
2.991546e-02
2.405814e-02
1.720814e-02
9.236341e-03
0.000000e+00
0.000000e+00
7.846512e-03
1.492099e-02
2.127529e-02
2.696087e-02
3.202697e-02
3.651935e-02
4.047944e-02
4.394383e-02
4.694411e-02
4.950674e-02
5.165307e-02
5.339938e-02
5.475689e-02
5.573173e-02
5.632483e-02
5.653178e-02
5.634263e-02
5.574147e-02
5.470612e-02
5.320753e-02
5.120918e-02
4.866640e-02
4.552547e-02
4.172279e-02
3.718398e-02
3.182296e-02
2.554134e-02
1.822803e-02
9.759384e-03
0.000000e+00
0.000000e+00
8.166775e-03
1.556518e-02
2.224052e-02
2.823831e-02
3.360274e-02
3.837549e-02
4.259490e-02
4.629532e-02
4.950674e-02
5.225453e-02
5.455930e-02
5.643681e-02
5.789780e-02
5.894796e-02
5.958770e-02
5.981198e-02
5.961004e-02
5.896506e-02
5.785376e-02
5.624589e-02
5.410370e-02
5.138129e-02
4.802394e-02
4.396738e-02
3.913711e-02
3.344784e-02
2.680297e-02
1.909455e-02
1.020342e-02
0.000000e+00
0.000000e+00
8.431743e-03
1.609856e-02
2.304069e-02
2.929893e-02
3.491330e-02
3.992206e-02
4.436075e-02
4.826162e-02
5.165307e-02
5.455930e-02
5.700009e-02
5.899052e-02
6.054082e-02
6.165613e-02
6.233636e-02
6.257585e-02
6.236318e-02
6.168075e-02
6.050440e-02
5.880298e-02
5.653782e-02
5.366219e-02
5.012074e-02
4.584888e-02
4.077232e-02
3.480660e-02
2.785685e-02
1.981776e-02
1.057382e-02
0.000000e+00
0.000000e+00
8.645261e-03
1.652862e-02
2.368646e-02
3.015588e-02
3.597363e-02
4.117512e-02
4.579356e-02
4.985933e-02
5.339938e-02
5.643681e-02
5.899052e-02
6.107494e-02
6.269973e-02
6.386952e-02
6.458370e-02
6.483612e-02
6.461475e-02
6.390136e-02
6.267114e-02
6.089226e-02
5.852539e-02
5.552326e-02
5.183012e-02
4.738134e-02
4.210292e-02
3.591127e-02
2.871297e-02
2.040488e-02
1.087440e-02
0.000000e+00
0.000000e+00
8.809956e-03
1.686050e-02
2.418514e-02
3.081825e-02
3.679408e-02
4.214582e-02
4.690483e-02
5.109994e-02
5.475689e-02
5.789780e-02
6.054082e-02
6.269973e-02
6.438366e-02
6.559682e-02
6.633813e-02
6.660098e-02
6.637290e-02
6.563517e-02
6.436248e-02
6.252251e-02
6.007551e-02
5.697384e-02
5.316158e-02
4.857413e-02
4.313784e-02
3.676985e-02
2.937797e-02
2.086072e-02
1.110770e-02
0.000000e+00
0.000000e+00
8.927410e-03
1.709727e-02
2.454113e-02
3.129148e-02
3.738078e-02
4.284068e-02
4.770116e-02
5.198992e-02
5.573173e-02
5.894796e-02
6.165613e-02
6.386952e-02
6.559682e-02
6.684184e-02
6.760315e-02
6.787381e-02
6.764098e-02
6.688561e-02
6.558205e-02
6.369766e-02
6.119241e-02
5.801849e-02
5.411988e-02
4.943208e-02
4.388178e-02
3.738668e-02
2.985547e-02
2.118791e-02
1.127511e-02
0.000000e+00
0.000000e+00
8.998254e-03
1.724014e-02
2.475611e-02
3.157753e-02
3.773584e-02
4.326172e-02
4.818434e-02
5.253065e-02
5.632483e-02
5.958770e-02
6.233636e-02
6.458370e-02
6.633813e-02
6.760315e-02
6.837711e-02
6.865280e-02
6.841718e-02
6.765098e-02
6.632837e-02
6.441653e-02
6.187531e-02
5.865680e-02
5.470503e-02
4.995558e-02
4.433537e-02
3.776251e-02
3.014624e-02
2.138706e-02
1.137698e-02
0.000000e+00
0.000000e+00
9.022205e-03
1.728853e-02
2.482911e-02
3.167500e-02
3.785733e-02
4.340647e-02
4.835128e-02
5.271842e-02
5.653178e-02
5.981198e-02
6.257585e-02
6.483612e-02
6.660098e-02
6.787381e-02
6.865280e-02
6.893064e-02
6.869420e-02
6.792413e-02
6.659453e-02
6.467259e-02
6.211813e-02
5.888330e-02
5.491217e-02
5.014043e-02
4.449514e-02
3.789459e-02
3.024822e-02
2.145679e-02
1.141261e-02
0.000000e+00
0.000000e+00
8.998062e-03
1.724000e-02
2.475648e-02
3.157906e-02
3.773927e-02
4.326783e-02
4.819383e-02
5.254410e-02
5.634263e-02
5.961004e-02
6.236318e-02
6.461475e-02
6.637290e-02
6.764098e-02
6.841718e-02
6.869420e-02
6.845893e-02
6.769210e-02
6.636793e-02
6.445368e-02
6.190934e-02
5.868717e-02
5.473138e-02
4.997775e-02
4.435337e-02
3.777649e-02
3.015643e-02
2.139371e-02
1.138027e-02
0.000000e+00
0.000000e+00
8.923642e-03
1.709019e-02
2.453175e-02
3.128121e-02
3.737132e-02
4.283379e-02
4.769851e-02
5.199294e-02
5.574147e-02
5.896506e-02
6.168075e-02
6.390136e-02
6.563517e-02
6.688561e-02
6.765098e-02
6.792413e-02
6.769210e-02
6.693587e-02
6.562987e-02
6.374166e-02
6.123150e-02
5.805193e-02
5.414734e-02
4.945363e-02
4.389784e-02
3.739797e-02
2.986286e-02
2.119225e-02
1.127710e-02
0.000000e+00
0.000000e+00
8.795683e-03
1.683260e-02
2.414531e-02
3.076899e-02
3.673844e-02
4.208705e-02
4.684610e-02
5.104406e-02
5.470612e-02
5.785376e-02
6.050440e-02
6.267114e-02
6.436248e-02
6.558205e-02
6.632837e-02
6.659453e-02
6.636793e-02
6.562987e-02
6.435523e-02
6.251202e-02
6.006098e-02
5.695506e-02
5.313898e-02
4.854879e-02
4.311146e-02
3.674456e-02
2.935609e-02
2.084452e-02
1.109901e-02
0.000000e+00
0.000000e+00
8.609672e-03
1.645826e-02
2.358398e-02
3.002540e-02
3.582026e-02
4.100439e-02
4.561099e-02
4.966996e-02
5.320753e-02
5.624589e-02
5.880298e-02
6.089226e-02
6.252251e-02
6.369766e-02
6.441653e-02
6.467259e-02
6.445368e-02
6.374166e-02
6.251202e-02
6.073347e-02
5.836742e-02
5.536748e-02
5.167890e-02
4.723802e-02
4.197175e-02
3.579712e-02
2.862097e-02
2.033990e-02
1.084053e-02
0.000000e+00
0.000000e+00
8.359593e-03
1.595527e-02
2.283038e-02
2.902818e-02
3.459035e-02
3.955593e-02
4.396053e-02
4.783580e-02
5.120918e-02
5.410370e-02
5.653782e-02
5.852539e-02
6.007551e-02
6.119241e-02
6.187531e-02
6.211813e-02
6.190934e-02
6.123150e-02
6.006098e-02
5.836742e-02
5.611323e-02
5.325299e-02
4.973278e-02
4.548949e-02
4.045011e-02
3.453111e-02
2.763791e-02
1.966468e-02
1.049450e-02
0.000000e+00
0.000000e+00
8.037547e-03
1.530808e-02
2.186199e-02
2.774874e-02
3.301512e-02
3.770407e-02
4.185402e-02
4.549857e-02
4.866640e-02
5.138129e-02
5.366219e-02
5.552326e-02
5.697384e-02
5.801849e-02
5.865680e-02
5.888330e-02
5.868717e-02
5.805193e-02
5.695506e-02
5.536748e-02
5.325299e-02
5.056757e-02
4.725858e-02
4.326388e-02
3.851089e-02
3.291568e-02
2.638209e-02
1.880131e-02
1.005178e-02
0.000000e+00
0.000000e+00
7.633177e-03
1.449646e-02
2.064979e-02
2.615075e-02
3.105241e-02
3.540222e-02
3.924164e-02
4.260614e-02
4.552547e-02
4.802394e-02
5.012074e-02
5.183012e-02
5.316158e-02
5.411988e-02
5.470503e-02
5.491217e-02
5.473138e-02
5.414734e-02
5.313898e-02
5.167890e-02
4.973278e-02
4.725858e-02
4.420558e-02
4.051329e-02
3.611018e-02
3.091236e-02
2.482221e-02
1.772744e-02
9.500621e-03
0.000000e+00
0.000000e+00
7.132764e-03
1.349388e-02
1.915635e-02
2.418810e-02
2.864961e-02
3.259316e-02
3.606303e-02
3.909613e-02
4.172279e-02
4.396738e-02
4.584888e-02
4.738134e-02
4.857413e-02
4.943208e-02
4.995558e-02
5.014043e-02
4.997775e-02
4.945363e-02
4.854879e-02
4.723802e-02
4.548949e-02
4.326388e-02
4.051329e-02
3.717987e-02
3.319419e-02
2.847331e-02
2.291871e-02
1.641443e-02
8.825808e-03
0.000000e+00
0.000000e+00
6.517725e-03
1.226507e-02
1.733294e-02
2.180215e-02
2.574128e-02
2.920705e-02
3.224574e-02
3.489473e-02
3.718398e-02
3.913711e-02
4.077232e-02
4.210292e-02
4.313784e-02
4.388178e-02
4.433537e-02
4.449514e-02
4.435337e-02
4.389784e-02
4.311146e-02
4.197175e-02
4.045011e-02
3.851089e-02
3.611018e-02
3.319419e-02
2.969718e-02
2.553884e-02
2.062116e-02
1.482499e-02
8.007213e-03
0.000000e+00
0.000000e+00
5.761976e-03
1.076181e-02
1.511513e-02
1.891782e-02
2.224598e-02
2.515911e-02
2.770356e-02
2.991546e-02
3.182296e-02
3.344784e-02
3.480660e-02
3.591127e-02
3.676985e-02
3.738668e-02
3.776251e-02
3.789459e-02
3.777649e-02
3.739797e-02
3.674456e-02
3.579712e-02
3.453111e-02
3.291568e-02
3.091236e-02
2.847331e-02
2.553884e-02
2.203405e-02
1.786429e-02
1.290934e-02
7.017231e-03
0.000000e+00
0.000000e+00
4.826838e-03
8.915940e-03
1.241626e-02
1.543845e-02
1.806264e-02
2.034711e-02
2.233486e-02
2.405814e-02
2.554134e-02
2.680297e-02
2.785685e-02
2.871297e-02
2.937797e-02
2.985547e-02
3.014624e-02
3.024822e-02
3.015643e-02
2.986286e-02
2.935609e-02
2.862097e-02
2.763791e-02
2.638209e-02
2.482221e-02
2.291871e-02
2.062116e-02
1.786429e-02
1.456203e-02
1.059857e-02
5.815859e-03
0.000000e+00
0.000000e+00
3.650138e-03
6.626739e-03
9.117464e-03
1.123919e-02
1.306647e-02
1.464896e-02
1.602123e-02
1.720814e-02
1.822803e-02
1.909455e-02
1.981776e-02
2.040488e-02
2.086072e-02
2.118791e-02
2.138706e-02
2.145679e-02
2.139371e-02
2.119225e-02
2.084452e-02
2.033990e-02
1.966468e-02
1.880131e-02
1.772744e-02
1.641443e-02
1.482499e-02
1.290934e-02
1.059857e-02
7.792864e-03
4.340150e-03
0.000000e+00
0.000000e+00
2.119745e-03
3.738107e-03
5.053968e-03
6.159828e-03
7.105554e-03
7.921322e-03
8.626978e-03
9.236341e-03
9.759384e-03
1.020342e-02
1.057382e-02
1.087440e-02
1.110770e-02
1.127511e-02
1.137698e-02
1.141261e-02
1.138027e-02
1.127710e-02
1.109901e-02
1.084053e-02
1.049450e-02
1.005178e-02
9.500621e-03
8.825808e-03
8.007213e-03
7.017231e-03
5.815859e-03
4.340150e-03
2.478607e-03
0.000000e+00
0.000000e+00
0.000000e+00
0.000000e+00
0.000000e+00
0.000000e+00
0.000000e+00
0.000000e+00
0.000000e+00
0.000000e+00
0.000000e+00
0.000000e+00
0.000000e+00
0.000000e+00
0.000000e+00
0.000000e+00
0.000000e+00
0.000000e+00
0.000000e+00
0.000000e+00
0.000000e+00
0.000000e+00
0.000000e+00
0.000000e+00
0.000000e+00
0.000000e+00
0.000000e+00
0.000000e+00
0.000000e+00
0.000000e+00
0.000000e+00
0.000000e+00
