# vtk DataFile Version 3.0
vtk output
ASCII
DATASET UNSTRUCTURED_GRID
POINTS 961 float
0.000000e+00 0.000000e+00 0.000000e+00
3.333333e-02 0.000000e+00 0.000000e+00
6.666667e-02 0.000000e+00 0.000000e+00
1.000000e-01 0.000000e+00 0.000000e+00
1.333333e-01 0.000000e+00 0.000000e+00
1.666667e-01 0.000000e+00 0.000000e+00
2.000000e-01 0.000000e+00 0.000000e+00
2.333333e-01 0.000000e+00 0.000000e+00
2.666667e-01 0.000000e+00 0.000000e+00
3.000000e-01 0.000000e+00 0.000000e+00
3.333333e-01 0.000000e+00 0.000000e+00
3.666667e-01 0.000000e+00 0.000000e+00
4.000000e-01 0.000000e+00 0.000000e+00
4.333333e-01 0.000000e+00 0.000000e+00
4.666667e-01 0.000000e+00 0.000000e+00
5.000000e-01 0.000000e+00 0.000000e+00
5.333333e-01 0.000000e+00 0.000000e+00
5.666667e-01 0.000000e+00 0.000000e+00
6.000000e-01 0.000000e+00 0.000000e+00
6.333333e-01 0.000000e+00 0.000000e+00
6.666667e-01 0.000000e+00 0.000000e+00
7.000000e-01 0.000000e+00 0.000000e+00
7.333333e-01 0.000000e+00 0.000000e+00
7.666667e-01 0.000000e+00 0.000000e+00
8.000000e-01 0.000000e+00 0.000000e+00
8.333333e-01 0.000000e+00 0.000000e+00
8.666667e-01 0.000000e+00 0.000000e+00
9.000000e-01 0.000000e+00 0.000000e+00
9.333333e-01 0.000000e+00 0.000000e+00
9.666667e-01 0.000000e+00 0.000000e+00
1.000000e+00 0.000000e+00 0.000000e+00
0.000000e+00 3.333333e-02 0.000000e+00
3.333333e-02 3.333333e-02 0.000000e+00
6.666667e-02 3.333333e-02 0.000000e+00
1.000000e-01 3.333333e-02 0.000000e+00
1.333333e-01 3.333333e-02 0.000000e+00
1.666667e-01 3.333333e-02 0.000000e+00
2.000000e-01 3.333333e-02 0.000000e+00
2.333333e-01 3.333333e-02 0.000000e+00
2.666667e-01 3.333333e-02 0.000000e+00
3.000000e-01 3.333333e-02 0.000000e+00
3.333333e-01 3.333333e-02 0.000000e+00
3.666667e-01 3.333333e-02 0.000000e+00
4.000000e-01 3.333333e-02 0.000000e+00
4.333333e-01 3.333333e-02 0.000000e+00
4.666667e-01 3.333333e-02 0.000000e+00
5.000000e-01 3.333333e-02 0.000000e+00
5.333333e-01 3.333333e-02 0.000000e+00
5.666667e-01 3.333333e-02 0.000000e+00
6.000000e-01 3.333333e-02 0.000000e+00
6.333333e-01 3.333333e-02 0.000000e+00
6.666667e-01 3.333333e-02 0.000000e+00
7.000000e-01 3.333333e-02 0.000000e+00
7.333333e-01 3.333333e-02 0.000000e+00
7.666667e-01 3.333333e-02 0.000000e+00
8.000000e-01 3.333333e-02 0.000000e+00
8.333333e-01 3.333333e-02 0.000000e+00
8.666667e-01 3.333333e-02 0.000000e+00
9.000000e-01 3.333333e-02 0.000000e+00
9.333333e-01 3.333333e-02 0.000000e+00
9.666667e-01 3.333333e-02 0.000000e+00
1.000000e+00 3.333333e-02 0.000000e+00
0.000000e+00 6.666667e-02 0.000000e+00
3.333333e-02 6.666667e-02 0.000000e+00
6.666667e-02 6.666667e-02 0.000000e+00
1.000000e-01 6.666667e-02 0.000000e+00
1.333333e-01 6.666667e-02 0.000000e+00
1.666667e-01 6.666667e-02 0.000000e+00
2.000000e-01 6.666667e-02 0.000000e+00
2.333333e-01 6.666667e-02 0.000000e+00
2.666667e-01 6.666667e-02 0.000000e+00
3.000000e-01 6.666667e-02 0.000000e+00
3.333333e-01 6.666667e-02 0.000000e+00
3.666667e-01 6.666667e-02 0.000000e+00
4.000000e-01 6.666667e-02 0.000000e+00
4.333333e-01 6.666667e-02 0.000000e+00
4.666667e-01 6.666667e-02 0.000000e+00
5.000000e-01 6.666667e-02 0.000000e+00
5.333333e-01 6.666667e-02 0.000000e+00
5.666667e-01 6.666667e-02 0.000000e+00
6.000000e-01 6.666667e-02 0.000000e+00
6.333333e-01 6.666667e-02 0.000000e+00
6.666667e-01 6.666667e-02 0.000000e+00
7.000000e-01 6.666667e-02 0.000000e+00
7.333333e-01 6.666667e-02 0.000000e+00
7.666667e-01 6.666667e-02 0.000000e+00
8.000000e-01 6.666667e-02 0.000000e+00
8.333333e-01 6.666667e-02 0.000000e+00
8.666667e-01 6.666667e-02 0.000000e+00
9.000000e-01 6.666667e-02 0.000000e+00
9.333333e-01 6.666667e-02 0.000000e+00
9.666667e-01 6.666667e-02 0.000000e+00
1.000000e+00 6.666667e-02 0.000000e+00
0.000000e+00 1.000000e-01 0.000000e+00
3.333333e-02 1.000000e-01 0.000000e+00
6.666667e-02 1.000000e-01 0.000000e+00
1.000000e-01 1.000000e-01 0.000000e+00
1.333333e-01 1.000000e-01 0.000000e+00
1.666667e-01 1.000000e-01 0.000000e+00
2.000000e-01 1.000000e-01 0.000000e+00
2.333333e-01 1.000000e-01 0.000000e+00
2.666667e-01 1.000000e-01 0.000000e+00
3.000000e-01 1.000000e-01 0.000000e+00
3.333333e-01 1.000000e-01 0.000000e+00
3.666667e-01 1.000000e-01 0.000000e+00
4.000000e-01 1.000000e-01 0.000000e+00
4.333333e-01 1.000000e-01 0.000000e+00
4.666667e-01 1.000000e-01 0.000000e+00
5.000000e-01 1.000000e-01 0.000000e+00
5.333333e-01 1.000000e-01 0.000000e+00
5.666667e-01 1.000000e-01 0.000000e+00
6.000000e-01 1.000000e-01 0.000000e+00
6.333333e-01 1.000000e-01 0.000000e+00
6.666667e-01 1.000000e-01 0.000000e+00
7.000000e-01 1.000000e-01 0.000000e+00
7.333333e-01 1.000000e-01 0.000000e+00
7.666667e-01 1.000000e-01 0.000000e+00
8.000000e-01 1.000000e-01 0.000000e+00
8.333333e-01 1.000000e-01 0.000000e+00
8.666667e-01 1.000000e-01 0.000000e+00
9.000000e-01 1.000000e-01 0.000000e+00
9.333333e-01 1.000000e-01 0.000000e+00
9.666667e-01 1.000000e-01 0.000000e+00
1.000000e+00 1.000000e-01 0.000000e+00
0.000000e+00 1.333333e-01 0.000000e+00
3.333333e-02 1.333333e-01 0.000000e+00
6.666667e-02 1.333333e-01 0.000000e+00
1.000000e-01 1.333333e-01 0.000000e+00
1.333333e-01 1.333333e-01 0.000000e+00
1.666667e-01 1.333333e-01 0.000000e+00
2.000000e-01 1.333333e-01 0.000000e+00
2.333333e-01 1.333333e-01 0.000000e+00
2.666667e-01 1.333333e-01 0.000000e+00
3.000000e-01 1.333333e-01 0.000000e+00
3.333333e-01 1.333333e-01 0.000000e+00
3.666667e-01 1.333333e-01 0.000000e+00
4.000000e-01 1.333333e-01 0.000000e+00
4.333333e-01 1.333333e-01 0.000000e+00
4.666667e-01 1.333333e-01 0.000000e+00
5.000000e-01 1.333333e-01 0.000000e+00
5.333333e-01 1.333333e-01 0.000000e+00
5.666667e-01 1.333333e-01 0.000000e+00
6.000000e-01 1.333333e-01 0.000000e+00
6.333333e-01 1.333333e-01 0.000000e+00
6.666667e-01 1.333333e-01 0.000000e+00
7.000000e-01 1.333333e-01 0.000000e+00
7.333333e-01 1.333333e-01 0.000000e+00
7.666667e-01 1.333333e-01 0.000000e+00
8.000000e-01 1.333333e-01 0.000000e+00
8.333333e-01 1.333333e-01 0.000000e+00
8.666667e-01 1.333333e-01 0.000000e+00
9.000000e-01 1.333333e-01 0.000000e+00
9.333333e-01 1.333333e-01 0.000000e+00
9.666667e-01 1.333333e-01 0.000000e+00
1.000000e+00 1.333333e-01 0.000000e+00
0.000000e+00 1.666667e-01 0.000000e+00
3.333333e-02 1.666667e-01 0.000000e+00
6.666667e-02 1.666667e-01 0.000000e+00
1.000000e-01 1.666667e-01 0.000000e+00
1.333333e-01 1.666667e-01 0.000000e+00
1.666667e-01 1.666667e-01 0.000000e+00
2.000000e-01 1.666667e-01 0.000000e+00
2.333333e-01 1.666667e-01 0.000000e+00
2.666667e-01 1.666667e-01 0.000000e+00
3.000000e-01 1.666667e-01 0.000000e+00
3.333333e-01 1.666667e-01 0.000000e+00
3.666667e-01 1.666667e-01 0.000000e+00
4.000000e-01 1.666667e-01 0.000000e+00
4.333333e-01 1.666667e-01 0.000000e+00
4.666667e-01 1.666667e-01 0.000000e+00
5.000000e-01 1.666667e-01 0.000000e+00
5.333333e-01 1.666667e-01 0.000000e+00
5.666667e-01 1.666667e-01 0.000000e+00
6.000000e-01 1.666667e-01 0.000000e+00
6.333333e-01 1.666667e-01 0.000000e+00
6.666667e-01 1.666667e-01 0.000000e+00
7.000000e-01 1.666667e-01 0.000000e+00
7.333333e-01 1.666667e-01 0.000000e+00
7.666667e-01 1.666667e-01 0.000000e+00
8.000000e-01 1.666667e-01 0.000000e+00
8.333333e-01 1.666667e-01 0.000000e+00
8.666667e-01 1.666667e-01 0.000000e+00
9.000000e-01 1.666667e-01 0.000000e+00
9.333333e-01 1.666667e-01 0.000000e+00
9.666667e-01 1.666667e-01 0.000000e+00
1.000000e+00 1.666667e-01 0.000000e+00
0.000000e+00 2.000000e-01 0.000000e+00
3.333333e-02 2.000000e-01 0.000000e+00
6.666667e-02 2.000000e-01 0.000000e+00
1.000000e-01 2.000000e-01 0.000000e+00
1.333333e-01 2.000000e-01 0.000000e+00
1.666667e-01 2.000000e-01 0.000000e+00
2.000000e-01 2.000000e-01 0.000000e+00
2.333333e-01 2.000000e-01 0.000000e+00
2.666667e-01 2.000000e-01 0.000000e+00
3.000000e-01 2.000000e-01 0.000000e+00
3.333333e-01 2.000000e-01 0.000000e+00
3.666667e-01 2.000000e-01 0.000000e+00
4.000000e-01 2.000000e-01 0.000000e+00
4.333333e-01 2.000000e-01 0.000000e+00
4.666667e-01 2.000000e-01 0.000000e+00
5.000000e-01 2.000000e-01 0.000000e+00
5.333333e-01 2.000000e-01 0.000000e+00
5.666667e-01 2.000000e-01 0.000000e+00
6.000000e-01 2.000000e-01 0.000000e+00
6.333333e-01 2.000000e-01 0.000000e+00
6.666667e-01 2.000000e-01 0.000000e+00
7.000000e-01 2.000000e-01 0.000000e+00
7.333333e-01 2.000000e-01 0.000000e+00
7.666667e-01 2.000000e-01 0.000000e+00
8.000000e-01 2.000000e-01 0.000000e+00
8.333333e-01 2.000000e-01 0.000000e+00
8.666667e-01 2.000000e-01 0.000000e+00
9.000000e-01 2.000000e-01 0.000000e+00
9.333333e-01 2.000000e-01 0.000000e+00
9.666667e-01 2.000000e-01 0.000000e+00
1.000000e+00 2.000000e-01 0.000000e+00
0.000000e+00 2.333333e-01 0.000000e+00
3.333333e-02 2.333333e-01 0.000000e+00
6.666667e-02 2.333333e-01 0.000000e+00
1.000000e-01 2.333333e-01 0.000000e+00
1.333333e-01 2.333333e-01 0.000000e+00
1.666667e-01 2.333333e-01 0.000000e+00
2.000000e-01 2.333333e-01 0.000000e+00
2.333333e-01 2.333333e-01 0.000000e+00
2.666667e-01 2.333333e-01 0.000000e+00
3.000000e-01 2.333333e-01 0.000000e+00
3.333333e-01 2.333333e-01 0.000000e+00
3.666667e-01 2.333333e-01 0.000000e+00
4.000000e-01 2.333333e-01 0.000000e+00
4.333333e-01 2.333333e-01 0.000000e+00
4.666667e-01 2.333333e-01 0.000000e+00
5.000000e-01 2.333333e-01 0.000000e+00
5.333333e-01 2.333333e-01 0.000000e+00
5.666667e-01 2.333333e-01 0.000000e+00
6.000000e-01 2.333333e-01 0.000000e+00
6.333333e-01 2.333333e-01 0.000000e+00
6.666667e-01 2.333333e-01 0.000000e+00
7.000000e-01 2.333333e-01 0.000000e+00
7.333333e-01 2.333333e-01 0.000000e+00
7.666667e-01 2.333333e-01 0.000000e+00
8.000000e-01 2.333333e-01 0.000000e+00
8.333333e-01 2.333333e-01 0.000000e+00
8.666667e-01 2.333333e-01 0.000000e+00
9.000000e-01 2.333333e-01 0.000000e+00
9.333333e-01 2.333333e-01 0.000000e+00
9.666667e-01 2.333333e-01 0.000000e+00
1.000000e+00 2.333333e-01 0.000000e+00
0.000000e+00 2.666667e-01 0.000000e+00
3.333333e-02 2.666667e-01 0.000000e+00
6.666667e-02 2.666667e-01 0.000000e+00
1.000000e-01 2.666667e-01 0.000000e+00
1.333333e-01 2.666667e-01 0.000000e+00
1.666667e-01 2.666667e-01 0.000000e+00
[...]
POINT_DATA 961
SCALARS u float
LOOKUP_TABLE default
0.000000e+00
0.000000e+00
0.000000e+00
0.000000e+00
0.000000e+00
0.000000e+00
0.000000e+00
0.000000e+00
0.000000e+00
0.000000e+00
0.000000e+00
0.000000e+00
0.000000e+00
0.000000e+00
0.000000e+00
0.000000e+00
0.000000e+00
0.000000e+00
0.000000e+00
0.000000e+00
0.000000e+00
0.000000e+00
0.000000e+00
0.000000e+00
0.000000e+00
0.000000e+00
0.000000e+00
0.000000e+00
0.000000e+00
0.000000e+00
0.000000e+00
0.000000e+00
1.868435e-03
3.243596e-03
4.330308e-03
5.223439e-03
5.973789e-03
6.611814e-03
7.157327e-03
7.623953e-03
8.021404e-03
8.356731e-03
8.635060e-03
8.860040e-03
9.034120e-03
9.158722e-03
9.234336e-03
9.260558e-03
9.236085e-03
9.158660e-03
9.024968e-03
8.830470e-03
8.569152e-03
8.233146e-03
7.812156e-03
7.292555e-03
6.655885e-03
5.876219e-03
4.915068e-03
3.710484e-03
2.150586e-03
0.000000e+00
0.000000e+00
3.243596e-03
5.818488e-03
7.923655e-03
9.682435e-03
1.117293e-02
1.244669e-02
1.353919e-02
1.447566e-02
1.527445e-02
1.594909e-02
1.650947e-02
1.696270e-02
1.731355e-02
1.756477e-02
1.771729e-02
1.777026e-02
1.772107e-02
1.756518e-02
1.729601e-02
1.690451e-02
1.637881e-02
1.570340e-02
1.485819e-02
1.381683e-02
1.254430e-02
1.099270e-02
9.094258e-03
6.748700e-03
3.800438e-03
0.000000e+00
0.000000e+00
4.330308e-03
7.923655e-03
1.094223e-02
1.350586e-02
1.570068e-02
1.758868e-02
1.921513e-02
2.061353e-02
2.180894e-02
2.282014e-02
2.366109e-02
2.434184e-02
2.486917e-02
2.524698e-02
2.547652e-02
2.555645e-02
2.548282e-02
2.524892e-02
2.484498e-02
2.425775e-02
2.346986e-02
2.245886e-02
2.119594e-02
1.964395e-02
1.775452e-02
1.546373e-02
1.268548e-02
9.301598e-03
5.148074e-03
0.000000e+00
0.000000e+00
5.223439e-03
9.682435e-03
1.350586e-02
1.679991e-02
1.964821e-02
2.211544e-02
2.425141e-02
2.609449e-02
2.767418e-02
2.901309e-02
3.012822e-02
3.103195e-02
3.173262e-02
3.223502e-02
3.254054e-02
3.264728e-02
3.255000e-02
3.223990e-02
3.170429e-02
3.092608e-02
2.988300e-02
2.854661e-02
2.688081e-02
2.483989e-02
2.236569e-02
1.938380e-02
1.579832e-02
1.148533e-02
6.285620e-03
0.000000e+00
0.000000e+00
5.973789e-03
1.117293e-02
1.570068e-02
1.964821e-02
2.309222e-02
2.609548e-02
2.870856e-02
3.097185e-02
3.291727e-02
3.456977e-02
3.594840e-02
3.706712e-02
3.793539e-02
3.855852e-02
3.893788e-02
3.907096e-02
3.895123e-02
3.856798e-02
3.790590e-02
3.694450e-02
3.565735e-02
3.401102e-02
3.196367e-02
2.946317e-02
2.644468e-02
2.282760e-02
1.851182e-02
1.337368e-02
7.262562e-03
0.000000e+00
0.000000e+00
6.611814e-03
1.244669e-02
1.758868e-02
2.211544e-02
2.609548e-02
2.958736e-02
3.264008e-02
3.529399e-02
3.758179e-02
3.952952e-02
4.115733e-02
4.248009e-02
4.350788e-02
4.424623e-02
4.469630e-02
4.485488e-02
4.471425e-02
4.426196e-02
4.348037e-02
4.234613e-02
4.082935e-02
3.889263e-02
3.648976e-02
3.356408e-02
3.004650e-02
2.585323e-02
2.088316e-02
1.501559e-02
8.108692e-03
0.000000e+00
0.000000e+00
7.157327e-03
1.353919e-02
1.921513e-02
2.425141e-02
2.870856e-02
3.264008e-02
3.609211e-02
3.910366e-02
4.170702e-02
4.392834e-02
4.578809e-02
4.730147e-02
4.847872e-02
4.932532e-02
4.984206e-02
5.002498e-02
4.986524e-02
4.934884e-02
4.845616e-02
4.716143e-02
4.543202e-02
4.322745e-02
4.049832e-02
3.718494e-02
3.321573e-02
2.850561e-02
2.295427e-02
1.644486e-02
8.843481e-03
0.000000e+00
0.000000e+00
7.623953e-03
1.447566e-02
2.061353e-02
2.609449e-02
3.097185e-02
3.529399e-02
3.910366e-02
4.243777e-02
4.532747e-02
4.779830e-02
4.987046e-02
5.155902e-02
5.287403e-02
5.382069e-02
5.439927e-02
5.460506e-02
5.442818e-02
5.385324e-02
5.285898e-02
5.141767e-02
4.949451e-02
4.704673e-02
4.402269e-02
4.036076e-02
3.598811e-02
3.081952e-02
2.475632e-02
1.768564e-02
9.480377e-03
0.000000e+00
0.000000e+00
8.021404e-03
1.527445e-02
2.180894e-02
2.767418e-02
3.291727e-02
3.758179e-02
4.170702e-02
4.532747e-02
4.847268e-02
5.116718e-02
5.343050e-02
5.527720e-02
5.671694e-02
5.775443e-02
5.838935e-02
5.861625e-02
5.842427e-02
5.779685e-02
5.671135e-02
5.513850e-02
5.304181e-02
5.037687e-02
4.709053e-02
4.311999e-02
3.839197e-02
3.282178e-02
2.631270e-02
1.875558e-02
1.002899e-02
0.000000e+00
0.000000e+00
8.356731e-03
1.594909e-02
2.282014e-02
2.901309e-02
3.456977e-02
3.952952e-02
4.392834e-02
4.779830e-02
5.116718e-02
5.405826e-02
5.649014e-02
5.847673e-02
6.002709e-02
6.114533e-02
6.183053e-02
6.207648e-02
6.187148e-02
6.119798e-02
6.003220e-02
5.834365e-02
5.609462e-02
5.323950e-02
4.972416e-02
4.548523e-02
4.044941e-02
3.453289e-02
2.764092e-02
1.966764e-02
1.049631e-02
0.000000e+00
0.000000e+00
8.635060e-03
1.650947e-02
2.366109e-02
3.012822e-02
3.594840e-02
4.115733e-02
4.578809e-02
4.987046e-02
5.343050e-02
5.649014e-02
5.906704e-02
6.117428e-02
6.282025e-02
6.400848e-02
6.473739e-02
6.500011e-02
6.478417e-02
6.407121e-02
6.283653e-02
6.104874e-02
5.866919e-02
5.565148e-02
5.194089e-02
4.747378e-02
4.217716e-02
3.596817e-02
2.875389e-02
2.043126e-02
1.088736e-02
0.000000e+00
0.000000e+00
8.860040e-03
1.696270e-02
2.434184e-02
3.103195e-02
3.706712e-02
4.248009e-02
4.730147e-02
5.155902e-02
5.527720e-02
5.847673e-02
6.117428e-02
6.338213e-02
6.510803e-02
6.635488e-02
6.712053e-02
6.739750e-02
6.717269e-02
6.642705e-02
6.513521e-02
6.326506e-02
6.077733e-02
5.762507e-02
5.375322e-02
4.909814e-02
4.358721e-02
3.713851e-02
2.966072e-02
2.105306e-02
1.120566e-02
0.000000e+00
0.000000e+00
9.034120e-03
1.731355e-02
2.486917e-02
3.173262e-02
3.793539e-02
4.350788e-02
4.847872e-02
5.287403e-02
5.671694e-02
6.002709e-02
6.282025e-02
6.510803e-02
6.689755e-02
6.819116e-02
6.898621e-02
6.927471e-02
6.904304e-02
6.827165e-02
6.693464e-02
6.499941e-02
6.242623e-02
5.916784e-02
5.516902e-02
5.036621e-02
4.468721e-02
3.805091e-02
3.036727e-02
2.153732e-02
1.145348e-02
0.000000e+00
0.000000e+00
9.158722e-03
1.756477e-02
2.524698e-02
3.223502e-02
3.855852e-02
4.424623e-02
4.932532e-02
5.382069e-02
5.775443e-02
6.114533e-02
6.400848e-02
6.635488e-02
6.819116e-02
6.951924e-02
7.033603e-02
7.063317e-02
7.039665e-02
6.960655e-02
6.823661e-02
6.625390e-02
6.361843e-02
6.028276e-02
5.619161e-02
5.128156e-02
4.548076e-02
3.870875e-02
3.087644e-02
2.188616e-02
1.163196e-02
0.000000e+00
0.000000e+00
9.234336e-03
1.771729e-02
2.547652e-02
3.254054e-02
3.893788e-02
4.469630e-02
4.984206e-02
5.439927e-02
5.838935e-02
6.183053e-02
6.473739e-02
6.712053e-02
6.898621e-02
7.033603e-02
7.116662e-02
7.146935e-02
7.122998e-02
7.042834e-02
6.903797e-02
6.702578e-02
6.435163e-02
6.096803e-02
5.681971e-02
5.184340e-02
4.596750e-02
3.911199e-02
3.118837e-02
2.209978e-02
1.174122e-02
0.000000e+00
0.000000e+00
9.260558e-03
1.777026e-02
2.555645e-02
3.264728e-02
3.907096e-02
4.485488e-02
5.002498e-02
5.460506e-02
5.861625e-02
6.207648e-02
6.500011e-02
6.739750e-02
6.927471e-02
7.063317e-02
7.146935e-02
7.177451e-02
7.153428e-02
7.072842e-02
6.933042e-02
6.730715e-02
6.461849e-02
6.121695e-02
5.704737e-02
5.204656e-02
4.614309e-02
3.925715e-02
3.130045e-02
2.217642e-02
1.178039e-02
0.000000e+00
0.000000e+00
9.236085e-03
1.772107e-02
2.548282e-02
3.255000e-02
3.895123e-02
4.471425e-02
4.986524e-02
5.442818e-02
5.842427e-02
6.187148e-02
6.478417e-02
6.717269e-02
6.904304e-02
7.039665e-02
7.122998e-02
7.153428e-02
7.129524e-02
7.049268e-02
6.910019e-02
6.708476e-02
6.440638e-02
6.101773e-02
5.686375e-02
5.188135e-02
4.599914e-02
3.913725e-02
3.120728e-02
2.211239e-02
1.174756e-02
0.000000e+00
0.000000e+00
9.158660e-03
1.756518e-02
2.524892e-02
3.223990e-02
3.856798e-02
4.426196e-02
4.934884e-02
5.385324e-02
5.779685e-02
6.119798e-02
6.407121e-02
6.642705e-02
6.827165e-02
6.960655e-02
7.042834e-02
7.072842e-02
7.049268e-02
6.970117e-02
6.832772e-02
6.633960e-02
6.369710e-02
6.035315e-02
5.625287e-02
5.133327e-02
4.552289e-02
3.874159e-02
3.090047e-02
2.190189e-02
1.163976e-02
0.000000e+00
0.000000e+00
9.024968e-03
1.729601e-02
2.484498e-02
3.170429e-02
3.790590e-02
4.348037e-02
4.845616e-02
5.285898e-02
5.671135e-02
6.003220e-02
6.283653e-02
6.513521e-02
6.693464e-02
6.823661e-02
6.903797e-02
6.933042e-02
6.910019e-02
6.832772e-02
6.698728e-02
6.504660e-02
6.246645e-02
5.920016e-02
5.519316e-02
5.038260e-02
4.469689e-02
3.805543e-02
3.036841e-02
2.153685e-02
1.145284e-02
0.000000e+00
0.000000e+00
8.830470e-03
1.690451e-02
2.425775e-02
3.092608e-02
3.694450e-02
4.234613e-02
4.716143e-02
5.141767e-02
5.513850e-02
5.834365e-02
6.104874e-02
6.326506e-02
6.499941e-02
6.625390e-02
6.702578e-02
6.730715e-02
6.708476e-02
6.633960e-02
6.504660e-02
6.317419e-02
6.068382e-02
5.752945e-02
5.365703e-02
4.900394e-02
4.349849e-02
3.705946e-02
2.959581e-02
2.100661e-02
1.118125e-02
0.000000e+00
0.000000e+00
8.569152e-03
1.637881e-02
2.346986e-02
2.988300e-02
3.565735e-02
4.082935e-02
4.543202e-02
4.949451e-02
5.304181e-02
5.609462e-02
5.866919e-02
6.077733e-02
6.242623e-02
6.361843e-02
6.435163e-02
6.461849e-02
6.440638e-02
6.369710e-02
6.246645e-02
6.068382e-02
5.831165e-02
5.530485e-02
5.161017e-02
4.716548e-02
4.189910e-02
3.572917e-02
2.856312e-02
2.029744e-02
1.081788e-02
0.000000e+00
0.000000e+00
8.233146e-03
1.570340e-02
2.245886e-02
2.854661e-02
3.401102e-02
3.889263e-02
4.322745e-02
4.704673e-02
5.037687e-02
5.323950e-02
5.565148e-02
5.762507e-02
5.916784e-02
6.028276e-02
6.096803e-02
6.121695e-02
6.101773e-02
6.035315e-02
5.920016e-02
5.752945e-02
5.530485e-02
5.248265e-02
4.901082e-02
4.482815e-02
3.986331e-02
3.403389e-02
2.724564e-02
1.939190e-02
1.035361e-02
0.000000e+00
0.000000e+00
7.812156e-03
1.485819e-02
2.119594e-02
2.688081e-02
3.196367e-02
3.648976e-02
4.049832e-02
4.402269e-02
4.709053e-02
4.972416e-02
5.194089e-02
5.375322e-02
5.516902e-02
5.619161e-02
5.681971e-02
5.704737e-02
5.686375e-02
5.625287e-02
5.519316e-02
5.365703e-02
5.161017e-02
4.901082e-02
4.580884e-02
4.194457e-02
3.734762e-02
3.193551e-02
2.561235e-02
1.826783e-02
9.776791e-03
0.000000e+00
0.000000e+00
7.292555e-03
1.381683e-02
1.964395e-02
2.483989e-02
2.946317e-02
3.356408e-02
3.718494e-02
4.036076e-02
4.311999e-02
4.548523e-02
4.747378e-02
4.909814e-02
5.036621e-02
5.128156e-02
5.184340e-02
5.204656e-02
5.188135e-02
5.133327e-02
5.038260e-02
4.900394e-02
4.716548e-02
4.482815e-02
4.194457e-02
3.845763e-02
3.429890e-02
2.938672e-02
2.362411e-02
1.689686e-02
9.072359e-03
0.000000e+00
0.000000e+00
6.655885e-03
1.254430e-02
1.775452e-02
2.236569e-02
2.644468e-02
3.004650e-02
3.321573e-02
3.598811e-02
3.839197e-02
4.044941e-02
4.217716e-02
4.358721e-02
4.468721e-02
4.548076e-02
4.596750e-02
4.614309e-02
4.599914e-02
4.552289e-02
4.469689e-02
4.349849e-02
4.189910e-02
3.986331e-02
3.734762e-02
3.429890e-02
3.065228e-02
2.632856e-02
2.123103e-02
1.524210e-02
8.220378e-03
0.000000e+00
0.000000e+00
5.876219e-03
1.099270e-02
1.546373e-02
1.938380e-02
2.282760e-02
2.585323e-02
2.850561e-02
3.081952e-02
3.282178e-02
3.453289e-02
3.596817e-02
3.713851e-02
3.805091e-02
3.870875e-02
3.911199e-02
3.925715e-02
3.913725e-02
3.874159e-02
3.805543e-02
3.705946e-02
3.572917e-02
3.403389e-02
3.193551e-02
2.938672e-02
2.632856e-02
2.268703e-02
1.836856e-02
1.325423e-02
7.193486e-03
0.000000e+00
0.000000e+00
4.915068e-03
9.094258e-03
1.268548e-02
1.579832e-02
1.851182e-02
2.088316e-02
2.295427e-02
2.475632e-02
2.631270e-02
2.764092e-02
2.875389e-02
2.966072e-02
3.036727e-02
3.087644e-02
3.118837e-02
3.130045e-02
3.120728e-02
3.090047e-02
3.036841e-02
2.959581e-02
2.856312e-02
2.724564e-02
2.561235e-02
2.362411e-02
2.123103e-02
1.836856e-02
1.495146e-02
1.086492e-02
5.951976e-03
0.000000e+00
0.000000e+00
3.710484e-03
6.748700e-03
9.301598e-03
1.148533e-02
1.337368e-02
1.501559e-02
1.644486e-02
1.768564e-02
1.875558e-02
1.966764e-02
2.043126e-02
2.105306e-02
2.153732e-02
2.188616e-02
2.209978e-02
2.217642e-02
2.211239e-02
2.190189e-02
2.153685e-02
2.100661e-02
2.029744e-02
1.939190e-02
1.826783e-02
1.689686e-02
1.524210e-02
1.325423e-02
1.086492e-02
7.975022e-03
4.433244e-03
0.000000e+00
0.000000e+00
2.150586e-03
3.800438e-03
5.148074e-03
6.285620e-03
7.262562e-03
8.108692e-03
8.843481e-03
9.480377e-03
1.002899e-02
1.049631e-02
1.088736e-02
1.120566e-02
1.145348e-02
1.163196e-02
1.174122e-02
1.178039e-02
1.174756e-02
1.163976e-02
1.145284e-02
1.118125e-02
1.081788e-02
1.035361e-02
9.776791e-03
9.072359e-03
8.220378e-03
7.193486e-03
5.951976e-03
4.433244e-03
2.526184e-03
0.000000e+00
0.000000e+00
0.000000e+00
0.000000e+00
0.000000e+00
0.000000e+00
0.000000e+00
0.000000e+00
0.000000e+00
0.000000e+00
0.000000e+00
0.000000e+00
0.000000e+00
0.000000e+00
0.000000e+00
0.000000e+00
0.000000e+00
0.000000e+00
0.000000e+00
0.000000e+00
0.000000e+00
0.000000e+00
0.000000e+00
0.000000e+00
0.000000e+00
0.000000e+00
0.000000e+00
0.000000e+00
0.000000e+00
0.000000e+00
0.000000e+00
0.000000e+00
