# vtk DataFile Version 3.0
vtk output
ASCII
DATASET UNSTRUCTURED_GRID
POINTS 961 float
0.000000e+00 0.000000e+00 0.000000e+00
3.333333e-02 0.000000e+00 0.000000e+00
6.666667e-02 0.000000e+00 0.000000e+00
1.000000e-01 0.000000e+00 0.000000e+00
1.333333e-01 0.000000e+00 0.000000e+00
1.666667e-01 0.000000e+00 0.000000e+00
2.000000e-01 0.000000e+00 0.000000e+00
2.333333e-01 0.000000e+00 0.000000e+00
2.666667e-01 0.000000e+00 0.000000e+00
3.000000e-01 0.000000e+00 0.000000e+00
3.333333e-01 0.000000e+00 0.000000e+00
3.666667e-01 0.000000e+00 0.000000e+00
4.000000e-01 0.000000e+00 0.000000e+00
4.333333e-01 0.000000e+00 0.000000e+00
4.666667e-01 0.000000e+00 0.000000e+00
5.000000e-01 0.000000e+00 0.000000e+00
5.333333e-01 0.000000e+00 0.000000e+00
5.666667e-01 0.000000e+00 0.000000e+00
6.000000e-01 0.000000e+00 0.000000e+00
6.333333e-01 0.000000e+00 0.000000e+00
6.666667e-01 0.000000e+00 0.000000e+00
7.000000e-01 0.000000e+00 0.000000e+00
7.333333e-01 0.000000e+00 0.000000e+00
7.666667e-01 0.000000e+00 0.000000e+00
8.000000e-01 0.000000e+00 0.000000e+00
8.333333e-01 0.000000e+00 0.000000e+00
8.666667e-01 0.000000e+00 0.000000e+00
9.000000e-01 0.000000e+00 0.000000e+00
9.333333e-01 0.000000e+00 0.000000e+00
9.666667e-01 0.000000e+00 0.000000e+00
1.000000e+00 0.000000e+00 0.000000e+00
0.000000e+00 3.333333e-02 0.000000e+00
3.333333e-02 3.333333e-02 0.000000e+00
6.666667e-02 3.333333e-02 0.000000e+00
1.000000e-01 3.333333e-02 0.000000e+00
1.333333e-01 3.333333e-02 0.000000e+00
1.666667e-01 3.333333e-02 0.000000e+00
2.000000e-01 3.333333e-02 0.000000e+00
2.333333e-01 3.333333e-02 0.000000e+00
2.666667e-01 3.333333e-02 0.000000e+00
3.000000e-01 3.333333e-02 0.000000e+00
3.333333e-01 3.333333e-02 0.000000e+00
3.666667e-01 3.333333e-02 0.000000e+00
4.000000e-01 3.333333e-02 0.000000e+00
4.333333e-01 3.333333e-02 0.000000e+00
4.666667e-01 3.333333e-02 0.000000e+00
5.000000e-01 3.333333e-02 0.000000e+00
5.333333e-01 3.333333e-02 0.000000e+00
5.666667e-01 3.333333e-02 0.000000e+00
6.000000e-01 3.333333e-02 0.000000e+00
6.333333e-01 3.333333e-02 0.000000e+00
6.666667e-01 3.333333e-02 0.000000e+00
7.000000e-01 3.333333e-02 0.000000e+00
7.333333e-01 3.333333e-02 0.000000e+00
7.666667e-01 3.333333e-02 0.000000e+00
8.000000e-01 3.333333e-02 0.000000e+00
8.333333e-01 3.333333e-02 0.000000e+00
8.666667e-01 3.333333e-02 0.000000e+00
9.000000e-01 3.333333e-02 0.000000e+00
9.333333e-01 3.333333e-02 0.000000e+00
9.666667e-01 3.333333e-02 0.000000e+00
1.000000e+00 3.333333e-02 0.000000e+00
0.000000e+00 6.666667e-02 0.000000e+00
3.333333e-02 6.666667e-02 0.000000e+00
6.666667e-02 6.666667e-02 0.000000e+00
1.000000e-01 6.666667e-02 0.000000e+00
1.333333e-01 6.666667e-02 0.000000e+00
1.666667e-01 6.666667e-02 0.000000e+00
2.000000e-01 6.666667e-02 0.000000e+00
2.333333e-01 6.666667e-02 0.000000e+00
2.666667e-01 6.666667e-02 0.000000e+00
3.000000e-01 6.666667e-02 0.000000e+00
3.333333e-01 6.666667e-02 0.000000e+00
3.666667e-01 6.666667e-02 0.000000e+00
4.000000e-01 6.666667e-02 0.000000e+00
4.333333e-01 6.666667e-02 0.000000e+00
4.666667e-01 6.666667e-02 0.000000e+00
5.000000e-01 6.666667e-02 0.000000e+00
5.333333e-01 6.666667e-02 0.000000e+00
5.666667e-01 6.666667e-02 0.000000e+00
6.000000e-01 6.666667e-02 0.000000e+00
6.333333e-01 6.666667e-02 0.000000e+00
6.666667e-01 6.666667e-02 0.000000e+00
7.000000e-01 6.666667e-02 0.000000e+00
7.333333e-01 6.666667e-02 0.000000e+00
7.666667e-01 6.666667e-02 0.000000e+00
8.000000e-01 6.666667e-02 0.000000e+00
8.333333e-01 6.666667e-02 0.000000e+00
8.666667e-01 6.666667e-02 0.000000e+00
9.000000e-01 6.666667e-02 0.000000e+00
9.333333e-01 6.666667e-02 0.000000e+00
9.666667e-01 6.666667e-02 0.000000e+00
1.000000e+00 6.666667e-02 0.000000e+00
0.000000e+00 1.000000e-01 0.000000e+00
3.333333e-02 1.000000e-01 0.000000e+00
6.666667e-02 1.000000e-01 0.000000e+00
1.000000e-01 1.000000e-01 0.000000e+00
1.333333e-01 1.000000e-01 0.000000e+00
1.666667e-01 1.000000e-01 0.000000e+00
2.000000e-01 1.000000e-01 0.000000e+00
2.333333e-01 1.000000e-01 0.000000e+00
2.666667e-01 1.000000e-01 0.000000e+00
3.000000e-01 1.000000e-01 0.000000e+00
3.333333e-01 1.000000e-01 0.000000e+00
3.666667e-01 1.000000e-01 0.000000e+00
4.000000e-01 1.000000e-01 0.000000e+00
4.333333e-01 1.000000e-01 0.000000e+00
4.666667e-01 1.000000e-01 0.000000e+00
5.000000e-01 1.000000e-01 0.000000e+00
5.333333e-01 1.000000e-01 0.000000e+00
5.666667e-01 1.000000e-01 0.000000e+00
6.000000e-01 1.000000e-01 0.000000e+00
6.333333e-01 1.000000e-01 0.000000e+00
6.666667e-01 1.000000e-01 0.000000e+00
7.000000e-01 1.000000e-01 0.000000e+00
7.333333e-01 1.000000e-01 0.000000e+00
7.666667e-01 1.000000e-01 0.000000e+00
8.000000e-01 1.000000e-01 0.000000e+00
8.333333e-01 1.000000e-01 0.000000e+00
8.666667e-01 1.000000e-01 0.000000e+00
9.000000e-01 1.000000e-01 0.000000e+00
9.333333e-01 1.000000e-01 0.000000e+00
9.666667e-01 1.000000e-01 0.000000e+00
1.000000e+00 1.000000e-01 0.000000e+00
0.000000e+00 1.333333e-01 0.000000e+00
3.333333e-02 1.333333e-01 0.000000e+00
6.666667e-02 1.333333e-01 0.000000e+00
1.000000e-01 1.333333e-01 0.000000e+00
1.333333e-01 1.333333e-01 0.000000e+00
1.666667e-01 1.333333e-01 0.000000e+00
2.000000e-01 1.333333e-01 0.000000e+00
2.333333e-01 1.333333e-01 0.000000e+00
2.666667e-01 1.333333e-01 0.000000e+00
3.000000e-01 1.333333e-01 0.000000e+00
3.333333e-01 1.333333e-01 0.000000e+00
3.666667e-01 1.333333e-01 0.000000e+00
4.000000e-01 1.333333e-01 0.000000e+00
4.333333e-01 1.333333e-01 0.000000e+00
4.666667e-01 1.333333e-01 0.000000e+00
5.000000e-01 1.333333e-01 0.000000e+00
5.333333e-01 1.333333e-01 0.000000e+00
5.666667e-01 1.333333e-01 0.000000e+00
6.000000e-01 1.333333e-01 0.000000e+00
6.333333e-01 1.333333e-01 0.000000e+00
6.666667e-01 1.333333e-01 0.000000e+00
7.000000e-01 1.333333e-01 0.000000e+00
7.333333e-01 1.333333e-01 0.000000e+00
7.666667e-01 1.333333e-01 0.000000e+00
8.000000e-01 1.333333e-01 0.000000e+00
8.333333e-01 1.333333e-01 0.000000e+00
8.666667e-01 1.333333e-01 0.000000e+00
9.000000e-01 1.333333e-01 0.000000e+00
9.333333e-01 1.333333e-01 0.000000e+00
9.666667e-01 1.333333e-01 0.000000e+00
1.000000e+00 1.333333e-01 0.000000e+00
0.000000e+00 1.666667e-01 0.000000e+00
3.333333e-02 1.666667e-01 0.000000e+00
6.666667e-02 1.666667e-01 0.000000e+00
1.000000e-01 1.666667e-01 0.000000e+00
1.333333e-01 1.666667e-01 0.000000e+00
1.666667e-01 1.666667e-01 0.000000e+00
2.000000e-01 1.666667e-01 0.000000e+00
2.333333e-01 1.666667e-01 0.000000e+00
2.666667e-01 1.666667e-01 0.000000e+00
3.000000e-01 1.666667e-01 0.000000e+00
3.333333e-01 1.666667e-01 0.000000e+00
3.666667e-01 1.666667e-01 0.000000e+00
4.000000e-01 1.666667e-01 0.000000e+00
4.333333e-01 1.666667e-01 0.000000e+00
4.666667e-01 1.666667e-01 0.000000e+00
5.000000e-01 1.666667e-01 0.000000e+00
5.333333e-01 1.666667e-01 0.000000e+00
5.666667e-01 1.666667e-01 0.000000e+00
6.000000e-01 1.666667e-01 0.000000e+00
6.333333e-01 1.666667e-01 0.000000e+00
6.666667e-01 1.666667e-01 0.000000e+00
7.000000e-01 1.666667e-01 0.000000e+00
7.333333e-01 1.666667e-01 0.000000e+00
7.666667e-01 1.666667e-01 0.000000e+00
8.000000e-01 1.666667e-01 0.000000e+00
8.333333e-01 1.666667e-01 0.000000e+00
8.666667e-01 1.666667e-01 0.000000e+00
9.000000e-01 1.666667e-01 0.000000e+00
9.333333e-01 1.666667e-01 0.000000e+00
9.666667e-01 1.666667e-01 0.000000e+00
1.000000e+00 1.666667e-01 0.000000e+00
0.000000e+00 2.000000e-01 0.000000e+00
3.333333e-02 2.000000e-01 0.000000e+00
6.666667e-02 2.000000e-01 0.000000e+00
1.000000e-01 2.000000e-01 0.000000e+00
1.333333e-01 2.000000e-01 0.000000e+00
1.666667e-01 2.000000e-01 0.000000e+00
2.000000e-01 2.000000e-01 0.000000e+00
2.333333e-01 2.000000e-01 0.000000e+00
2.666667e-01 2.000000e-01 0.000000e+00
3.000000e-01 2.000000e-01 0.000000e+00
3.333333e-01 2.000000e-01 0.000000e+00
3.666667e-01 2.000000e-01 0.000000e+00
4.000000e-01 2.000000e-01 0.000000e+00
4.333333e-01 2.000000e-01 0.000000e+00
4.666667e-01 2.000000e-01 0.000000e+00
5.000000e-01 2.000000e-01 0.000000e+00
5.333333e-01 2.000000e-01 0.000000e+00
5.666667e-01 2.000000e-01 0.000000e+00
6.000000e-01 2.000000e-01 0.000000e+00
6.333333e-01 2.000000e-01 0.000000e+00
6.666667e-01 2.000000e-01 0.000000e+00
7.000000e-01 2.000000e-01 0.000000e+00
7.333333e-01 2.000000e-01 0.000000e+00
7.666667e-01 2.000000e-01 0.000000e+00
8.000000e-01 2.000000e-01 0.000000e+00
8.333333e-01 2.000000e-01 0.000000e+00
8.666667e-01 2.000000e-01 0.000000e+00
9.000000e-01 2.000000e-01 0.000000e+00
9.333333e-01 2.000000e-01 0.000000e+00
9.666667e-01 2.000000e-01 0.000000e+00
1.000000e+00 2.000000e-01 0.000000e+00
0.000000e+00 2.333333e-01 0.000000e+00
3.333333e-02 2.333333e-01 0.000000e+00
6.666667e-02 2.333333e-01 0.000000e+00
1.000000e-01 2.333333e-01 0.000000e+00
1.333333e-01 2.333333e-01 0.000000e+00
1.666667e-01 2.333333e-01 0.000000e+00
2.000000e-01 2.333333e-01 0.000000e+00
2.333333e-01 2.333333e-01 0.000000e+00
2.666667e-01 2.333333e-01 0.000000e+00
3.000000e-01 2.333333e-01 0.000000e+00
3.333333e-01 2.333333e-01 0.000000e+00
3.666667e-01 2.333333e-01 0.000000e+00
4.000000e-01 2.333333e-01 0.000000e+00
4.333333e-01 2.333333e-01 0.000000e+00
4.666667e-01 2.333333e-01 0.000000e+00
5.000000e-01 2.333333e-01 0.000000e+00
5.333333e-01 2.333333e-01 0.000000e+00
5.666667e-01 2.333333e-01 0.000000e+00
6.000000e-01 2.333333e-01 0.000000e+00
6.333333e-01 2.333333e-01 0.000000e+00
6.666667e-01 2.333333e-01 0.000000e+00
7.000000e-01 2.333333e-01 0.000000e+00
7.333333e-01 2.333333e-01 0.000000e+00
7.666667e-01 2.333333e-01 0.000000e+00
8.000000e-01 2.333333e-01 0.000000e+00
8.333333e-01 2.333333e-01 0.000000e+00
8.666667e-01 2.333333e-01 0.000000e+00
9.000000e-01 2.333333e-01 0.000000e+00
9.333333e-01 2.333333e-01 0.000000e+00
9.666667e-01 2.333333e-01 0.000000e+00
1.000000e+00 2.333333e-01 0.000000e+00
0.000000e+00 2.666667e-01 0.000000e+00
3.333333e-02 2.666667e-01 0.000000e+00
6.666667e-02 2.666667e-01 0.000000e+00
1.000000e-01 2.666667e-01 0.000000e+00
1.333333e-01 2.666667e-01 0.000000e+00
1.666667e-01 2.666667e-01 0.000000e+00
[...]
POINT_DATA 961
SCALARS u float
LOOKUP_TABLE default
0.000000e+00
0.000000e+00
0.000000e+00
0.000000e+00
0.000000e+00
0.000000e+00
0.000000e+00
0.000000e+00
0.000000e+00
0.000000e+00
0.000000e+00
0.000000e+00
0.000000e+00
0.000000e+00
0.000000e+00
0.000000e+00
0.000000e+00
0.000000e+00
0.000000e+00
0.000000e+00
0.000000e+00
0.000000e+00
0.000000e+00
0.000000e+00
0.000000e+00
0.000000e+00
0.000000e+00
0.000000e+00
0.000000e+00
0.000000e+00
0.000000e+00
0.000000e+00
1.868430e-03
3.243585e-03
4.330292e-03
5.223418e-03
5.973762e-03
6.611782e-03
7.157290e-03
7.623911e-03
8.021358e-03
8.356681e-03
8.635006e-03
8.859983e-03
9.034060e-03
9.158661e-03
9.234273e-03
9.260494e-03
9.236021e-03
9.158597e-03
9.024906e-03
8.830410e-03
8.569096e-03
8.233093e-03
7.812108e-03
7.292512e-03
6.655848e-03
5.876188e-03
4.915045e-03
3.710468e-03
2.150577e-03
0.000000e+00
0.000000e+00
3.243585e-03
5.818467e-03
7.923622e-03
9.682391e-03
1.117287e-02
1.244663e-02
1.353912e-02
1.447557e-02
1.527436e-02
1.594898e-02
1.650936e-02
1.696259e-02
1.731343e-02
1.756464e-02
1.771716e-02
1.777013e-02
1.772094e-02
1.756506e-02
1.729588e-02
1.690440e-02
1.637870e-02
1.570330e-02
1.485809e-02
1.381675e-02
1.254422e-02
1.099263e-02
9.094210e-03
6.748667e-03
3.800421e-03
0.000000e+00
0.000000e+00
4.330292e-03
7.923622e-03
1.094218e-02
1.350580e-02
1.570059e-02
1.758858e-02
1.921501e-02
2.061340e-02
2.180880e-02
2.281999e-02
2.366093e-02
2.434166e-02
2.486898e-02
2.524679e-02
2.547632e-02
2.555625e-02
2.548262e-02
2.524872e-02
2.484479e-02
2.425757e-02
2.346968e-02
2.245870e-02
2.119579e-02
1.964381e-02
1.775441e-02
1.546364e-02
1.268541e-02
9.301549e-03
5.148049e-03
0.000000e+00
0.000000e+00
5.223418e-03
9.682391e-03
1.350580e-02
1.679982e-02
1.964810e-02
2.211531e-02
2.425126e-02
2.609432e-02
2.767399e-02
2.901289e-02
3.012800e-02
3.103171e-02
3.173238e-02
3.223477e-02
3.254028e-02
3.264702e-02
3.254974e-02
3.223964e-02
3.170404e-02
3.092584e-02
2.988277e-02
2.854639e-02
2.688061e-02
2.483971e-02
2.236554e-02
1.938367e-02
1.579823e-02
1.148526e-02
6.285586e-03
0.000000e+00
0.000000e+00
5.973762e-03
1.117287e-02
1.570059e-02
1.964810e-02
2.309208e-02
2.609531e-02
2.870837e-02
3.097164e-02
3.291704e-02
3.456951e-02
3.594812e-02
3.706683e-02
3.793508e-02
3.855820e-02
3.893756e-02
3.907063e-02
3.895090e-02
3.856766e-02
3.790559e-02
3.694420e-02
3.565706e-02
3.401076e-02
3.196343e-02
2.946295e-02
2.644449e-02
2.282745e-02
1.851170e-02
1.337360e-02
7.262519e-03
0.000000e+00
0.000000e+00
6.611782e-03
1.244663e-02
1.758858e-02
2.211531e-02
2.609531e-02
2.958716e-02
3.263985e-02
3.529373e-02
3.758151e-02
3.952922e-02
4.115700e-02
4.247975e-02
4.350752e-02
4.424585e-02
4.469592e-02
4.485449e-02
4.471386e-02
4.426157e-02
4.348000e-02
4.234577e-02
4.082901e-02
3.889231e-02
3.648947e-02
3.356381e-02
3.004628e-02
2.585304e-02
2.088302e-02
1.501549e-02
8.108641e-03
0.000000e+00
0.000000e+00
7.157290e-03
1.353912e-02
1.921501e-02
2.425126e-02
2.870837e-02
3.263985e-02
3.609185e-02
3.910336e-02
4.170669e-02
4.392799e-02
4.578771e-02
4.730106e-02
4.847829e-02
4.932488e-02
4.984161e-02
5.002453e-02
4.986479e-02
4.934839e-02
4.845572e-02
4.716101e-02
4.543162e-02
4.322708e-02
4.049798e-02
3.718463e-02
3.321547e-02
2.850540e-02
2.295410e-02
1.644474e-02
8.843422e-03
0.000000e+00
0.000000e+00
7.623911e-03
1.447557e-02
2.061340e-02
2.609432e-02
3.097164e-02
3.529373e-02
3.910336e-02
4.243744e-02
4.532710e-02
4.779790e-02
4.987003e-02
5.155856e-02
5.287355e-02
5.382019e-02
5.439876e-02
5.460455e-02
5.442767e-02
5.385274e-02
5.285849e-02
5.141720e-02
4.949406e-02
4.704631e-02
4.402231e-02
4.036042e-02
3.598781e-02
3.081928e-02
2.475613e-02
1.768551e-02
9.480311e-03
0.000000e+00
0.000000e+00
8.021358e-03
1.527436e-02
2.180880e-02
2.767399e-02
3.291704e-02
3.758151e-02
4.170669e-02
4.532710e-02
4.847227e-02
5.116674e-02
5.343002e-02
5.527669e-02
5.671641e-02
5.775388e-02
5.838880e-02
5.861569e-02
5.842370e-02
5.779629e-02
5.671081e-02
5.513797e-02
5.304131e-02
5.037641e-02
4.709010e-02
4.311961e-02
3.839164e-02
3.282151e-02
2.631249e-02
1.875544e-02
1.002892e-02
0.000000e+00
0.000000e+00
8.356681e-03
1.594898e-02
2.281999e-02
2.901289e-02
3.456951e-02
3.952922e-02
4.392799e-02
4.779790e-02
5.116674e-02
5.405777e-02
5.648963e-02
5.847619e-02
6.002651e-02
6.114474e-02
6.182992e-02
6.207587e-02
6.187087e-02
6.119737e-02
6.003160e-02
5.834308e-02
5.609407e-02
5.323899e-02
4.972369e-02
4.548481e-02
4.044905e-02
3.453260e-02
2.764069e-02
1.966748e-02
1.049623e-02
0.000000e+00
0.000000e+00
8.635006e-03
1.650936e-02
2.366093e-02
3.012800e-02
3.594812e-02
4.115700e-02
4.578771e-02
4.987003e-02
5.343002e-02
5.648963e-02
5.906648e-02
6.117369e-02
6.281964e-02
6.400784e-02
6.473674e-02
6.499945e-02
6.478352e-02
6.407056e-02
6.283590e-02
6.104813e-02
5.866861e-02
5.565094e-02
5.194039e-02
4.747334e-02
4.217678e-02
3.596785e-02
2.875364e-02
2.043109e-02
1.088727e-02
0.000000e+00
0.000000e+00
8.859983e-03
1.696259e-02
2.434166e-02
3.103171e-02
3.706683e-02
4.247975e-02
4.730106e-02
5.155856e-02
5.527669e-02
5.847619e-02
6.117369e-02
6.338151e-02
6.510738e-02
6.635421e-02
6.711984e-02
6.739680e-02
6.717199e-02
6.642636e-02
6.513453e-02
6.326442e-02
6.077671e-02
5.762449e-02
5.375269e-02
4.909767e-02
4.358680e-02
3.713818e-02
2.966046e-02
2.105289e-02
1.120557e-02
0.000000e+00
0.000000e+00
9.034060e-03
1.731343e-02
2.486898e-02
3.173238e-02
3.793508e-02
4.350752e-02
4.847829e-02
5.287355e-02
5.671641e-02
6.002651e-02
6.281964e-02
6.510738e-02
6.689687e-02
6.819046e-02
6.898549e-02
6.927398e-02
6.904232e-02
6.827093e-02
6.693394e-02
6.499873e-02
6.242559e-02
5.916724e-02
5.516847e-02
5.036572e-02
4.468678e-02
3.805056e-02
3.036700e-02
2.153713e-02
1.145338e-02
0.000000e+00
0.000000e+00
9.158661e-03
1.756464e-02
2.524679e-02
3.223477e-02
3.855820e-02
4.424585e-02
4.932488e-02
5.382019e-02
5.775388e-02
6.114474e-02
6.400784e-02
6.635421e-02
6.819046e-02
6.951851e-02
7.033529e-02
7.063241e-02
7.039590e-02
6.960581e-02
6.823588e-02
6.625320e-02
6.361777e-02
6.028214e-02
5.619105e-02
5.128105e-02
4.548032e-02
3.870839e-02
3.087616e-02
2.188597e-02
1.163186e-02
0.000000e+00
0.000000e+00
9.234273e-03
1.771716e-02
2.547632e-02
3.254028e-02
3.893756e-02
4.469592e-02
4.984161e-02
5.439876e-02
5.838880e-02
6.182992e-02
6.473674e-02
6.711984e-02
6.898549e-02
7.033529e-02
7.116587e-02
7.146859e-02
7.122921e-02
7.042758e-02
6.903723e-02
6.702506e-02
6.435095e-02
6.096739e-02
5.681913e-02
5.184288e-02
4.596705e-02
3.911162e-02
3.118809e-02
2.209959e-02
1.174112e-02
0.000000e+00
0.000000e+00
9.260494e-03
1.777013e-02
2.555625e-02
3.264702e-02
3.907063e-02
4.485449e-02
5.002453e-02
5.460455e-02
5.861569e-02
6.207587e-02
6.499945e-02
6.739680e-02
6.927398e-02
7.063241e-02
7.146859e-02
7.177373e-02
7.153350e-02
7.072765e-02
6.932967e-02
6.730643e-02
6.461780e-02
6.121631e-02
5.704678e-02
5.204604e-02
4.614264e-02
3.925677e-02
3.130016e-02
2.217623e-02
1.178028e-02
0.000000e+00
0.000000e+00
9.236021e-03
1.772094e-02
2.548262e-02
3.254974e-02
3.895090e-02
4.471386e-02
4.986479e-02
5.442767e-02
5.842370e-02
6.187087e-02
6.478352e-02
6.717199e-02
6.904232e-02
7.039590e-02
7.122921e-02
7.153350e-02
7.129447e-02
7.049192e-02
6.909944e-02
6.708403e-02
6.440570e-02
6.101709e-02
5.686317e-02
5.188083e-02
4.599869e-02
3.913687e-02
3.120699e-02
2.211219e-02
1.174746e-02
0.000000e+00
0.000000e+00
9.158597e-03
1.756506e-02
2.524872e-02
3.223964e-02
3.856766e-02
4.426157e-02
4.934839e-02
5.385274e-02
5.779629e-02
6.119737e-02
6.407056e-02
6.642636e-02
6.827093e-02
6.960581e-02
7.042758e-02
7.072765e-02
7.049192e-02
6.970041e-02
6.832698e-02
6.633888e-02
6.369642e-02
6.035251e-02
5.625229e-02
5.133275e-02
4.552244e-02
3.874122e-02
3.090018e-02
2.190169e-02
1.163966e-02
0.000000e+00
0.000000e+00
9.024906e-03
1.729588e-02
2.484479e-02
3.170404e-02
3.790559e-02
4.348000e-02
4.845572e-02
5.285849e-02
5.671081e-02
6.003160e-02
6.283590e-02
6.513453e-02
6.693394e-02
6.823588e-02
6.903723e-02
6.932967e-02
6.909944e-02
6.832698e-02
6.698655e-02
6.504591e-02
6.246579e-02
5.919954e-02
5.519260e-02
5.038210e-02
4.469646e-02
3.805507e-02
3.036813e-02
2.153666e-02
1.145274e-02
0.000000e+00
0.000000e+00
8.830410e-03
1.690440e-02
2.425757e-02
3.092584e-02
3.694420e-02
4.234577e-02
4.716101e-02
5.141720e-02
5.513797e-02
5.834308e-02
6.104813e-02
6.326442e-02
6.499873e-02
6.625320e-02
6.702506e-02
6.730643e-02
6.708403e-02
6.633888e-02
6.504591e-02
6.317352e-02
6.068318e-02
5.752885e-02
5.365648e-02
4.900345e-02
4.349807e-02
3.705911e-02
2.959554e-02
2.100643e-02
1.118116e-02
0.000000e+00
0.000000e+00
8.569096e-03
1.637870e-02
2.346968e-02
2.988277e-02
3.565706e-02
4.082901e-02
4.543162e-02
4.949406e-02
5.304131e-02
5.609407e-02
5.866861e-02
6.077671e-02
6.242559e-02
6.361777e-02
6.435095e-02
6.461780e-02
6.440570e-02
6.369642e-02
6.246579e-02
6.068318e-02
5.831104e-02
5.530428e-02
5.160965e-02
4.716501e-02
4.189870e-02
3.572884e-02
2.856286e-02
2.029727e-02
1.081779e-02
0.000000e+00
0.000000e+00
8.233093e-03
1.570330e-02
2.245870e-02
2.854639e-02
3.401076e-02
3.889231e-02
4.322708e-02
4.704631e-02
5.037641e-02
5.323899e-02
5.565094e-02
5.762449e-02
5.916724e-02
6.028214e-02
6.096739e-02
6.121631e-02
6.101709e-02
6.035251e-02
5.919954e-02
5.752885e-02
5.530428e-02
5.248212e-02
4.901034e-02
4.482772e-02
3.986293e-02
3.403358e-02
2.724540e-02
1.939174e-02
1.035352e-02
0.000000e+00
0.000000e+00
7.812108e-03
1.485809e-02
2.119579e-02
2.688061e-02
3.196343e-02
3.648947e-02
4.049798e-02
4.402231e-02
4.709010e-02
4.972369e-02
5.194039e-02
5.375269e-02
5.516847e-02
5.619105e-02
5.681913e-02
5.704678e-02
5.686317e-02
5.625229e-02
5.519260e-02
5.365648e-02
5.160965e-02
4.901034e-02
4.580840e-02
4.194417e-02
3.734728e-02
3.193523e-02
2.561213e-02
1.826768e-02
9.776715e-03
0.000000e+00
0.000000e+00
7.292512e-03
1.381675e-02
1.964381e-02
2.483971e-02
2.946295e-02
3.356381e-02
3.718463e-02
4.036042e-02
4.311961e-02
4.548481e-02
4.747334e-02
4.909767e-02
5.036572e-02
5.128105e-02
5.184288e-02
5.204604e-02
5.188083e-02
5.133275e-02
5.038210e-02
4.900345e-02
4.716501e-02
4.482772e-02
4.194417e-02
3.845728e-02
3.429860e-02
2.938647e-02
2.362391e-02
1.689673e-02
9.072291e-03
0.000000e+00
0.000000e+00
6.655848e-03
1.254422e-02
1.775441e-02
2.236554e-02
2.644449e-02
3.004628e-02
3.321547e-02
3.598781e-02
3.839164e-02
4.044905e-02
4.217678e-02
4.358680e-02
4.468678e-02
4.548032e-02
4.596705e-02
4.614264e-02
4.599869e-02
4.552244e-02
4.469646e-02
4.349807e-02
4.189870e-02
3.986293e-02
3.734728e-02
3.429860e-02
3.065202e-02
2.632834e-02
2.123086e-02
1.524198e-02
8.220319e-03
0.000000e+00
0.000000e+00
5.876188e-03
1.099263e-02
1.546364e-02
1.938367e-02
2.282745e-02
2.585304e-02
2.850540e-02
3.081928e-02
3.282151e-02
3.453260e-02
3.596785e-02
3.713818e-02
3.805056e-02
3.870839e-02
3.911162e-02
3.925677e-02
3.913687e-02
3.874122e-02
3.805507e-02
3.705911e-02
3.572884e-02
3.403358e-02
3.193523e-02
2.938647e-02
2.632834e-02
2.268685e-02
1.836842e-02
1.325413e-02
7.193438e-03
0.000000e+00
0.000000e+00
4.915045e-03
9.094210e-03
1.268541e-02
1.579823e-02
1.851170e-02
2.088302e-02
2.295410e-02
2.475613e-02
2.631249e-02
2.764069e-02
2.875364e-02
2.966046e-02
3.036700e-02
3.087616e-02
3.118809e-02
3.130016e-02
3.120699e-02
3.090018e-02
3.036813e-02
2.959554e-02
2.856286e-02
2.724540e-02
2.561213e-02
2.362391e-02
2.123086e-02
1.836842e-02
1.495136e-02
1.086484e-02
5.951939e-03
0.000000e+00
0.000000e+00
3.710468e-03
6.748667e-03
9.301549e-03
1.148526e-02
1.337360e-02
1.501549e-02
1.644474e-02
1.768551e-02
1.875544e-02
1.966748e-02
2.043109e-02
2.105289e-02
2.153713e-02
2.188597e-02
2.209959e-02
2.217623e-02
2.211219e-02
2.190169e-02
2.153666e-02
2.100643e-02
2.029727e-02
1.939174e-02
1.826768e-02
1.689673e-02
1.524198e-02
1.325413e-02
1.086484e-02
7.974972e-03
4.433219e-03
0.000000e+00
0.000000e+00
2.150577e-03
3.800421e-03
5.148049e-03
6.285586e-03
7.262519e-03
8.108641e-03
8.843422e-03
9.480311e-03
1.002892e-02
1.049623e-02
1.088727e-02
1.120557e-02
1.145338e-02
1.163186e-02
1.174112e-02
1.178028e-02
1.174746e-02
1.163966e-02
1.145274e-02
1.118116e-02
1.081779e-02
1.035352e-02
9.776715e-03
9.072291e-03
8.220319e-03
7.193438e-03
5.951939e-03
4.433219e-03
2.526171e-03
0.000000e+00
0.000000e+00
0.000000e+00
0.000000e+00
0.000000e+00
0.000000e+00
0.000000e+00
0.000000e+00
0.000000e+00
0.000000e+00
0.000000e+00
0.000000e+00
0.000000e+00
0.000000e+00
0.000000e+00
0.000000e+00
0.000000e+00
0.000000e+00
0.000000e+00
0.000000e+00
0.000000e+00
0.000000e+00
0.000000e+00
0.000000e+00
0.000000e+00
0.000000e+00
0.000000e+00
0.000000e+00
0.000000e+00
0.000000e+00
0.000000e+00
0.000000e+00
