# vtk DataFile Version 3.0
vtk output
ASCII
DATASET UNSTRUCTURED_GRID
POINTS 961 float
0.000000e+00 0.000000e+00 0.000000e+00
3.333333e-02 0.000000e+00 0.000000e+00
6.666667e-02 0.000000e+00 0.000000e+00
1.000000e-01 0.000000e+00 0.000000e+00
1.333333e-01 0.000000e+00 0.000000e+00
1.666667e-01 0.000000e+00 0.000000e+00
2.000000e-01 0.000000e+00 0.000000e+00
2.333333e-01 0.000000e+00 0.000000e+00
2.666667e-01 0.000000e+00 0.000000e+00
3.000000e-01 0.000000e+00 0.000000e+00
3.333333e-01 0.000000e+00 0.000000e+00
3.666667e-01 0.000000e+00 0.000000e+00
4.000000e-01 0.000000e+00 0.000000e+00
4.333333e-01 0.000000e+00 0.000000e+00
4.666667e-01 0.000000e+00 0.000000e+00
5.000000e-01 0.000000e+00 0.000000e+00
5.333333e-01 0.000000e+00 0.000000e+00
5.666667e-01 0.000000e+00 0.000000e+00
6.000000e-01 0.000000e+00 0.000000e+00
6.333333e-01 0.000000e+00 0.000000e+00
6.666667e-01 0.000000e+00 0.000000e+00
7.000000e-01 0.000000e+00 0.000000e+00
7.333333e-01 0.000000e+00 0.000000e+00
7.666667e-01 0.000000e+00 0.000000e+00
8.000000e-01 0.000000e+00 0.000000e+00
8.333333e-01 0.000000e+00 0.000000e+00
8.666667e-01 0.000000e+00 0.000000e+00
9.000000e-01 0.000000e+00 0.000000e+00
9.333333e-01 0.000000e+00 0.000000e+00
9.666667e-01 0.000000e+00 0.000000e+00
1.000000e+00 0.000000e+00 0.000000e+00
0.000000e+00 3.333333e-02 0.000000e+00
3.333333e-02 3.333333e-02 0.000000e+00
6.666667e-02 3.333333e-02 0.000000e+00
1.000000e-01 3.333333e-02 0.000000e+00
1.333333e-01 3.333333e-02 0.000000e+00
1.666667e-01 3.333333e-02 0.000000e+00
2.000000e-01 3.333333e-02 0.000000e+00
2.333333e-01 3.333333e-02 0.000000e+00
2.666667e-01 3.333333e-02 0.000000e+00
3.000000e-01 3.333333e-02 0.000000e+00
3.333333e-01 3.333333e-02 0.000000e+00
3.666667e-01 3.333333e-02 0.000000e+00
4.000000e-01 3.333333e-02 0.000000e+00
4.333333e-01 3.333333e-02 0.000000e+00
4.666667e-01 3.333333e-02 0.000000e+00
5.000000e-01 3.333333e-02 0.000000e+00
5.333333e-01 3.333333e-02 0.000000e+00
5.666667e-01 3.333333e-02 0.000000e+00
6.000000e-01 3.333333e-02 0.000000e+00
6.333333e-01 3.333333e-02 0.000000e+00
6.666667e-01 3.333333e-02 0.000000e+00
7.000000e-01 3.333333e-02 0.000000e+00
7.333333e-01 3.333333e-02 0.000000e+00
7.666667e-01 3.333333e-02 0.000000e+00
8.000000e-01 3.333333e-02 0.000000e+00
8.333333e-01 3.333333e-02 0.000000e+00
8.666667e-01 3.333333e-02 0.000000e+00
9.000000e-01 3.333333e-02 0.000000e+00
9.333333e-01 3.333333e-02 0.000000e+00
9.666667e-01 3.333333e-02 0.000000e+00
1.000000e+00 3.333333e-02 0.000000e+00
0.000000e+00 6.666667e-02 0.000000e+00
3.333333e-02 6.666667e-02 0.000000e+00
6.666667e-02 6.666667e-02 0.000000e+00
1.000000e-01 6.666667e-02 0.000000e+00
1.333333e-01 6.666667e-02 0.000000e+00
1.666667e-01 6.666667e-02 0.000000e+00
2.000000e-01 6.666667e-02 0.000000e+00
2.333333e-01 6.666667e-02 0.000000e+00
2.666667e-01 6.666667e-02 0.000000e+00
3.000000e-01 6.666667e-02 0.000000e+00
3.333333e-01 6.666667e-02 0.000000e+00
3.666667e-01 6.666667e-02 0.000000e+00
4.000000e-01 6.666667e-02 0.000000e+00
4.333333e-01 6.666667e-02 0.000000e+00
4.666667e-01 6.666667e-02 0.000000e+00
5.000000e-01 6.666667e-02 0.000000e+00
5.333333e-01 6.666667e-02 0.000000e+00
5.666667e-01 6.666667e-02 0.000000e+00
6.000000e-01 6.666667e-02 0.000000e+00
6.333333e-01 6.666667e-02 0.000000e+00
6.666667e-01 6.666667e-02 0.000000e+00
7.000000e-01 6.666667e-02 0.000000e+00
7.333333e-01 6.666667e-02 0.000000e+00
7.666667e-01 6.666667e-02 0.000000e+00
8.000000e-01 6.666667e-02 0.000000e+00
8.333333e-01 6.666667e-02 0.000000e+00
8.666667e-01 6.666667e-02 0.000000e+00
9.000000e-01 6.666667e-02 0.000000e+00
9.333333e-01 6.666667e-02 0.000000e+00
9.666667e-01 6.666667e-02 0.000000e+00
1.000000e+00 6.666667e-02 0.000000e+00
0.000000e+00 1.000000e-01 0.000000e+00
3.333333e-02 1.000000e-01 0.000000e+00
6.666667e-02 1.000000e-01 0.000000e+00
1.000000e-01 1.000000e-01 0.000000e+00
1.333333e-01 1.000000e-01 0.000000e+00
1.666667e-01 1.000000e-01 0.000000e+00
2.000000e-01 1.000000e-01 0.000000e+00
2.333333e-01 1.000000e-01 0.000000e+00
2.666667e-01 1.000000e-01 0.000000e+00
3.000000e-01 1.000000e-01 0.000000e+00
3.333333e-01 1.000000e-01 0.000000e+00
3.666667e-01 1.000000e-01 0.000000e+00
4.000000e-01 1.000000e-01 0.000000e+00
4.333333e-01 1.000000e-01 0.000000e+00
4.666667e-01 1.000000e-01 0.000000e+00
5.000000e-01 1.000000e-01 0.000000e+00
5.333333e-01 1.000000e-01 0.000000e+00
5.666667e-01 1.000000e-01 0.000000e+00
6.000000e-01 1.000000e-01 0.000000e+00
6.333333e-01 1.000000e-01 0.000000e+00
6.666667e-01 1.000000e-01 0.000000e+00
7.000000e-01 1.000000e-01 0.000000e+00
7.333333e-01 1.000000e-01 0.000000e+00
7.666667e-01 1.000000e-01 0.000000e+00
8.000000e-01 1.000000e-01 0.000000e+00
8.333333e-01 1.000000e-01 0.000000e+00
8.666667e-01 1.000000e-01 0.000000e+00
9.000000e-01 1.000000e-01 0.000000e+00
9.333333e-01 1.000000e-01 0.000000e+00
9.666667e-01 1.000000e-01 0.000000e+00
1.000000e+00 1.000000e-01 0.000000e+00
0.000000e+00 1.333333e-01 0.000000e+00
3.333333e-02 1.333333e-01 0.000000e+00
6.666667e-02 1.333333e-01 0.000000e+00
1.000000e-01 1.333333e-01 0.000000e+00
1.333333e-01 1.333333e-01 0.000000e+00
1.666667e-01 1.333333e-01 0.000000e+00
2.000000e-01 1.333333e-01 0.000000e+00
2.333333e-01 1.333333e-01 0.000000e+00
2.666667e-01 1.333333e-01 0.000000e+00
3.000000e-01 1.333333e-01 0.000000e+00
3.333333e-01 1.333333e-01 0.000000e+00
3.666667e-01 1.333333e-01 0.000000e+00
4.000000e-01 1.333333e-01 0.000000e+00
4.333333e-01 1.333333e-01 0.000000e+00
4.666667e-01 1.333333e-01 0.000000e+00
5.000000e-01 1.333333e-01 0.000000e+00
5.333333e-01 1.333333e-01 0.000000e+00
5.666667e-01 1.333333e-01 0.000000e+00
6.000000e-01 1.333333e-01 0.000000e+00
6.333333e-01 1.333333e-01 0.000000e+00
6.666667e-01 1.333333e-01 0.000000e+00
7.000000e-01 1.333333e-01 0.000000e+00
7.333333e-01 1.333333e-01 0.000000e+00
7.666667e-01 1.333333e-01 0.000000e+00
8.000000e-01 1.333333e-01 0.000000e+00
8.333333e-01 1.333333e-01 0.000000e+00
8.666667e-01 1.333333e-01 0.000000e+00
9.000000e-01 1.333333e-01 0.000000e+00
9.333333e-01 1.333333e-01 0.000000e+00
9.666667e-01 1.333333e-01 0.000000e+00
1.000000e+00 1.333333e-01 0.000000e+00
0.000000e+00 1.666667e-01 0.000000e+00
3.333333e-02 1.666667e-01 0.000000e+00
6.666667e-02 1.666667e-01 0.000000e+00
1.000000e-01 1.666667e-01 0.000000e+00
1.333333e-01 1.666667e-01 0.000000e+00
1.666667e-01 1.666667e-01 0.000000e+00
2.000000e-01 1.666667e-01 0.000000e+00
2.333333e-01 1.666667e-01 0.000000e+00
2.666667e-01 1.666667e-01 0.000000e+00
3.000000e-01 1.666667e-01 0.000000e+00
3.333333e-01 1.666667e-01 0.000000e+00
3.666667e-01 1.666667e-01 0.000000e+00
4.000000e-01 1.666667e-01 0.000000e+00
4.333333e-01 1.666667e-01 0.000000e+00
4.666667e-01 1.666667e-01 0.000000e+00
5.000000e-01 1.666667e-01 0.000000e+00
5.333333e-01 1.666667e-01 0.000000e+00
5.666667e-01 1.666667e-01 0.000000e+00
6.000000e-01 1.666667e-01 0.000000e+00
6.333333e-01 1.666667e-01 0.000000e+00
6.666667e-01 1.666667e-01 0.000000e+00
7.000000e-01 1.666667e-01 0.000000e+00
7.333333e-01 1.666667e-01 0.000000e+00
7.666667e-01 1.666667e-01 0.000000e+00
8.000000e-01 1.666667e-01 0.000000e+00
8.333333e-01 1.666667e-01 0.000000e+00
8.666667e-01 1.666667e-01 0.000000e+00
9.000000e-01 1.666667e-01 0.000000e+00
9.333333e-01 1.666667e-01 0.000000e+00
9.666667e-01 1.666667e-01 0.000000e+00
1.000000e+00 1.666667e-01 0.000000e+00
0.000000e+00 2.000000e-01 0.000000e+00
3.333333e-02 2.000000e-01 0.000000e+00
6.666667e-02 2.000000e-01 0.000000e+00
1.000000e-01 2.000000e-01 0.000000e+00
1.333333e-01 2.000000e-01 0.000000e+00
1.666667e-01 2.000000e-01 0.000000e+00
2.000000e-01 2.000000e-01 0.000000e+00
2.333333e-01 2.000000e-01 0.000000e+00
2.666667e-01 2.000000e-01 0.000000e+00
3.000000e-01 2.000000e-01 0.000000e+00
3.333333e-01 2.000000e-01 0.000000e+00
3.666667e-01 2.000000e-01 0.000000e+00
4.000000e-01 2.000000e-01 0.000000e+00
4.333333e-01 2.000000e-01 0.000000e+00
4.666667e-01 2.000000e-01 0.000000e+00
5.000000e-01 2.000000e-01 0.000000e+00
5.333333e-01 2.000000e-01 0.000000e+00
5.666667e-01 2.000000e-01 0.000000e+00
6.000000e-01 2.000000e-01 0.000000e+00
6.333333e-01 2.000000e-01 0.000000e+00
6.666667e-01 2.000000e-01 0.000000e+00
7.000000e-01 2.000000e-01 0.000000e+00
7.333333e-01 2.000000e-01 0.000000e+00
7.666667e-01 2.000000e-01 0.000000e+00
8.000000e-01 2.000000e-01 0.000000e+00
8.333333e-01 2.000000e-01 0.000000e+00
8.666667e-01 2.000000e-01 0.000000e+00
9.000000e-01 2.000000e-01 0.000000e+00
9.333333e-01 2.000000e-01 0.000000e+00
9.666667e-01 2.000000e-01 0.000000e+00
1.000000e+00 2.000000e-01 0.000000e+00
0.000000e+00 2.333333e-01 0.000000e+00
3.333333e-02 2.333333e-01 0.000000e+00
6.666667e-02 2.333333e-01 0.000000e+00
1.000000e-01 2.333333e-01 0.000000e+00
1.333333e-01 2.333333e-01 0.000000e+00
1.666667e-01 2.333333e-01 0.000000e+00
2.000000e-01 2.333333e-01 0.000000e+00
2.333333e-01 2.333333e-01 0.000000e+00
2.666667e-01 2.333333e-01 0.000000e+00
3.000000e-01 2.333333e-01 0.000000e+00
3.333333e-01 2.333333e-01 0.000000e+00
3.666667e-01 2.333333e-01 0.000000e+00
4.000000e-01 2.333333e-01 0.000000e+00
4.333333e-01 2.333333e-01 0.000000e+00
4.666667e-01 2.333333e-01 0.000000e+00
5.000000e-01 2.333333e-01 0.000000e+00
5.333333e-01 2.333333e-01 0.000000e+00
5.666667e-01 2.333333e-01 0.000000e+00
6.000000e-01 2.333333e-01 0.000000e+00
6.333333e-01 2.333333e-01 0.000000e+00
6.666667e-01 2.333333e-01 0.000000e+00
7.000000e-01 2.333333e-01 0.000000e+00
7.333333e-01 2.333333e-01 0.000000e+00
7.666667e-01 2.333333e-01 0.000000e+00
8.000000e-01 2.333333e-01 0.000000e+00
8.333333e-01 2.333333e-01 0.000000e+00
8.666667e-01 2.333333e-01 0.000000e+00
9.000000e-01 2.333333e-01 0.000000e+00
9.333333e-01 2.333333e-01 0.000000e+00
9.666667e-01 2.333333e-01 0.000000e+00
1.000000e+00 2.333333e-01 0.000000e+00
0.000000e+00 2.666667e-01 0.000000e+00
3.333333e-02 2.666667e-01 0.000000e+00
6.666667e-02 2.666667e-01 0.000000e+00
1.000000e-01 2.666667e-01 0.000000e+00
1.333333e-01 2.666667e-01 0.000000e+00
1.666667e-01 2.666667e-01 0.000000e+00
[...]
POINT_DATA 961
SCALARS u float
LOOKUP_TABLE default
0.000000e+00
0.000000e+00
0.000000e+00
0.000000e+00
0.000000e+00
0.000000e+00
0.000000e+00
0.000000e+00
0.000000e+00
0.000000e+00
0.000000e+00
0.000000e+00
0.000000e+00
0.000000e+00
0.000000e+00
0.000000e+00
0.000000e+00
0.000000e+00
0.000000e+00
0.000000e+00
0.000000e+00
0.000000e+00
0.000000e+00
0.000000e+00
0.000000e+00
0.000000e+00
0.000000e+00
0.000000e+00
0.000000e+00
0.000000e+00
0.000000e+00
0.000000e+00
1.868438e-03
3.243601e-03
4.330315e-03
5.223448e-03
5.973800e-03
6.611828e-03
7.157343e-03
7.623971e-03
8.021424e-03
8.356753e-03
8.635084e-03
8.860065e-03
9.034146e-03
9.158749e-03
9.234364e-03
9.260586e-03
9.236113e-03
9.158687e-03
9.024994e-03
8.830496e-03
8.569176e-03
8.233169e-03
7.812177e-03
7.292573e-03
6.655901e-03
5.876232e-03
4.915079e-03
3.710491e-03
2.150589e-03
0.000000e+00
0.000000e+00
3.243601e-03
5.818498e-03
7.923669e-03
9.682453e-03
1.117295e-02
1.244672e-02
1.353922e-02
1.447569e-02
1.527449e-02
1.594913e-02
1.650952e-02
1.696275e-02
1.731360e-02
1.756482e-02
1.771734e-02
1.777032e-02
1.772112e-02
1.756524e-02
1.729606e-02
1.690457e-02
1.637886e-02
1.570345e-02
1.485823e-02
1.381687e-02
1.254433e-02
1.099272e-02
9.094279e-03
6.748714e-03
3.800445e-03
0.000000e+00
0.000000e+00
4.330315e-03
7.923669e-03
1.094225e-02
1.350589e-02
1.570071e-02
1.758872e-02
1.921518e-02
2.061358e-02
2.180900e-02
2.282021e-02
2.366116e-02
2.434191e-02
2.486925e-02
2.524706e-02
2.547660e-02
2.555653e-02
2.548290e-02
2.524900e-02
2.484506e-02
2.425783e-02
2.346993e-02
2.245893e-02
2.119600e-02
1.964400e-02
1.775457e-02
1.546377e-02
1.268551e-02
9.301620e-03
5.148085e-03
0.000000e+00
0.000000e+00
5.223448e-03
9.682453e-03
1.350589e-02
1.679995e-02
1.964825e-02
2.211549e-02
2.425148e-02
2.609456e-02
2.767427e-02
2.901318e-02
3.012832e-02
3.103205e-02
3.173273e-02
3.223513e-02
3.254065e-02
3.264740e-02
3.255012e-02
3.224001e-02
3.170440e-02
3.092618e-02
2.988310e-02
2.854670e-02
2.688090e-02
2.483997e-02
2.236576e-02
1.938385e-02
1.579837e-02
1.148536e-02
6.285635e-03
0.000000e+00
0.000000e+00
5.973800e-03
1.117295e-02
1.570071e-02
1.964825e-02
2.309228e-02
2.609555e-02
2.870865e-02
3.097194e-02
3.291737e-02
3.456988e-02
3.594852e-02
3.706724e-02
3.793552e-02
3.855866e-02
3.893802e-02
3.907110e-02
3.895137e-02
3.856812e-02
3.790604e-02
3.694463e-02
3.565748e-02
3.401114e-02
3.196378e-02
2.946326e-02
2.644476e-02
2.282767e-02
1.851188e-02
1.337372e-02
7.262580e-03
0.000000e+00
0.000000e+00
6.611828e-03
1.244672e-02
1.758872e-02
2.211549e-02
2.609555e-02
2.958744e-02
3.264018e-02
3.529410e-02
3.758191e-02
3.952966e-02
4.115747e-02
4.248025e-02
4.350804e-02
4.424640e-02
4.469647e-02
4.485505e-02
4.471442e-02
4.426212e-02
4.348054e-02
4.234629e-02
4.082950e-02
3.889277e-02
3.648989e-02
3.356419e-02
3.004660e-02
2.585331e-02
2.088322e-02
1.501563e-02
8.108714e-03
0.000000e+00
0.000000e+00
7.157343e-03
1.353922e-02
1.921518e-02
2.425148e-02
2.870865e-02
3.264018e-02
3.609223e-02
3.910378e-02
4.170716e-02
4.392850e-02
4.578826e-02
4.730164e-02
4.847890e-02
4.932551e-02
4.984225e-02
5.002517e-02
4.986544e-02
4.934903e-02
4.845634e-02
4.716161e-02
4.543219e-02
4.322761e-02
4.049847e-02
3.718507e-02
3.321585e-02
2.850571e-02
2.295434e-02
1.644491e-02
8.843506e-03
0.000000e+00
0.000000e+00
7.623971e-03
1.447569e-02
2.061358e-02
2.609456e-02
3.097194e-02
3.529410e-02
3.910378e-02
4.243792e-02
4.532763e-02
4.779848e-02
4.987065e-02
5.155921e-02
5.287424e-02
5.382090e-02
5.439949e-02
5.460528e-02
5.442840e-02
5.385346e-02
5.285919e-02
5.141788e-02
4.949470e-02
4.704691e-02
4.402286e-02
4.036091e-02
3.598824e-02
3.081963e-02
2.475640e-02
1.768570e-02
9.480406e-03
0.000000e+00
0.000000e+00
8.021424e-03
1.527449e-02
2.180900e-02
2.767427e-02
3.291737e-02
3.758191e-02
4.170716e-02
4.532763e-02
4.847286e-02
5.116738e-02
5.343070e-02
5.527742e-02
5.671717e-02
5.775466e-02
5.838960e-02
5.861650e-02
5.842451e-02
5.779709e-02
5.671158e-02
5.513872e-02
5.304203e-02
5.037707e-02
4.709071e-02
4.312015e-02
3.839211e-02
3.282190e-02
2.631279e-02
1.875564e-02
1.002903e-02
0.000000e+00
0.000000e+00
8.356753e-03
1.594913e-02
2.282021e-02
2.901318e-02
3.456988e-02
3.952966e-02
4.392850e-02
4.779848e-02
5.116738e-02
5.405847e-02
5.649037e-02
5.847697e-02
6.002734e-02
6.114559e-02
6.183079e-02
6.207675e-02
6.187175e-02
6.119824e-02
6.003245e-02
5.834390e-02
5.609485e-02
5.323972e-02
4.972436e-02
4.548540e-02
4.044956e-02
3.453302e-02
2.764102e-02
1.966771e-02
1.049634e-02
0.000000e+00
0.000000e+00
8.635084e-03
1.650952e-02
2.366116e-02
3.012832e-02
3.594852e-02
4.115747e-02
4.578826e-02
4.987065e-02
5.343070e-02
5.649037e-02
5.906728e-02
6.117453e-02
6.282052e-02
6.400875e-02
6.473767e-02
6.500040e-02
6.478446e-02
6.407149e-02
6.283681e-02
6.104901e-02
5.866945e-02
5.565172e-02
5.194110e-02
4.747398e-02
4.217733e-02
3.596831e-02
2.875399e-02
2.043133e-02
1.088740e-02
0.000000e+00
0.000000e+00
8.860065e-03
1.696275e-02
2.434191e-02
3.103205e-02
3.706724e-02
4.248025e-02
4.730164e-02
5.155921e-02
5.527742e-02
5.847697e-02
6.117453e-02
6.338240e-02
6.510832e-02
6.635518e-02
6.712083e-02
6.739780e-02
6.717299e-02
6.642734e-02
6.513550e-02
6.326534e-02
6.077759e-02
5.762532e-02
5.375345e-02
4.909834e-02
4.358738e-02
3.713866e-02
2.966083e-02
2.105314e-02
1.120570e-02
0.000000e+00
0.000000e+00
9.034146e-03
1.731360e-02
2.486925e-02
3.173273e-02
3.793552e-02
4.350804e-02
4.847890e-02
5.287424e-02
5.671717e-02
6.002734e-02
6.282052e-02
6.510832e-02
6.689785e-02
6.819147e-02
6.898652e-02
6.927502e-02
6.904336e-02
6.827196e-02
6.693495e-02
6.499970e-02
6.242651e-02
5.916810e-02
5.516926e-02
5.036643e-02
4.468739e-02
3.805106e-02
3.036739e-02
2.153740e-02
1.145352e-02
0.000000e+00
0.000000e+00
9.158749e-03
1.756482e-02
2.524706e-02
3.223513e-02
3.855866e-02
4.424640e-02
4.932551e-02
5.382090e-02
5.775466e-02
6.114559e-02
6.400875e-02
6.635518e-02
6.819147e-02
6.951955e-02
7.033635e-02
7.063349e-02
7.039698e-02
6.960687e-02
6.823692e-02
6.625420e-02
6.361872e-02
6.028303e-02
5.619186e-02
5.128178e-02
4.548095e-02
3.870891e-02
3.087656e-02
2.188625e-02
1.163200e-02
0.000000e+00
0.000000e+00
9.234364e-03
1.771734e-02
2.547660e-02
3.254065e-02
3.893802e-02
4.469647e-02
4.984225e-02
5.439949e-02
5.838960e-02
6.183079e-02
6.473767e-02
6.712083e-02
6.898652e-02
7.033635e-02
7.116696e-02
7.146969e-02
7.123032e-02
7.042867e-02
6.903829e-02
6.702609e-02
6.435193e-02
6.096830e-02
5.681996e-02
5.184362e-02
4.596769e-02
3.911215e-02
3.118850e-02
2.209987e-02
1.174126e-02
0.000000e+00
0.000000e+00
9.260586e-03
1.777032e-02
2.555653e-02
3.264740e-02
3.907110e-02
4.485505e-02
5.002517e-02
5.460528e-02
5.861650e-02
6.207675e-02
6.500040e-02
6.739780e-02
6.927502e-02
7.063349e-02
7.146969e-02
7.177484e-02
7.153462e-02
7.072875e-02
6.933075e-02
6.730747e-02
6.461878e-02
6.121723e-02
5.704763e-02
5.204679e-02
4.614329e-02
3.925731e-02
3.130058e-02
2.217651e-02
1.178043e-02
0.000000e+00
0.000000e+00
9.236113e-03
1.772112e-02
2.548290e-02
3.255012e-02
3.895137e-02
4.471442e-02
4.986544e-02
5.442840e-02
5.842451e-02
6.187175e-02
6.478446e-02
6.717299e-02
6.904336e-02
7.039698e-02
7.123032e-02
7.153462e-02
7.129558e-02
7.049302e-02
6.910052e-02
6.708507e-02
6.440668e-02
6.101801e-02
5.686401e-02
5.188158e-02
4.599934e-02
3.913741e-02
3.120740e-02
2.211247e-02
1.174760e-02
0.000000e+00
0.000000e+00
9.158687e-03
1.756524e-02
2.524900e-02
3.224001e-02
3.856812e-02
4.426212e-02
4.934903e-02
5.385346e-02
5.779709e-02
6.119824e-02
6.407149e-02
6.642734e-02
6.827196e-02
6.960687e-02
7.042867e-02
7.072875e-02
7.049302e-02
6.970150e-02
6.832804e-02
6.633991e-02
6.369740e-02
6.035342e-02
5.625312e-02
5.133349e-02
4.552308e-02
3.874175e-02
3.090059e-02
2.190197e-02
1.163981e-02
0.000000e+00
0.000000e+00
9.024994e-03
1.729606e-02
2.484506e-02
3.170440e-02
3.790604e-02
4.348054e-02
4.845634e-02
5.285919e-02
5.671158e-02
6.003245e-02
6.283681e-02
6.513550e-02
6.693495e-02
6.823692e-02
6.903829e-02
6.933075e-02
6.910052e-02
6.832804e-02
6.698759e-02
6.504691e-02
6.246674e-02
5.920042e-02
5.519341e-02
5.038282e-02
4.469708e-02
3.805559e-02
3.036853e-02
2.153693e-02
1.145288e-02
0.000000e+00
0.000000e+00
8.830496e-03
1.690457e-02
2.425783e-02
3.092618e-02
3.694463e-02
4.234629e-02
4.716161e-02
5.141788e-02
5.513872e-02
5.834390e-02
6.104901e-02
6.326534e-02
6.499970e-02
6.625420e-02
6.702609e-02
6.730747e-02
6.708507e-02
6.633991e-02
6.504691e-02
6.317449e-02
6.068410e-02
5.752971e-02
5.365726e-02
4.900415e-02
4.349868e-02
3.705961e-02
2.959593e-02
2.100669e-02
1.118129e-02
0.000000e+00
0.000000e+00
8.569176e-03
1.637886e-02
2.346993e-02
2.988310e-02
3.565748e-02
4.082950e-02
4.543219e-02
4.949470e-02
5.304203e-02
5.609485e-02
5.866945e-02
6.077759e-02
6.242651e-02
6.361872e-02
6.435193e-02
6.461878e-02
6.440668e-02
6.369740e-02
6.246674e-02
6.068410e-02
5.831191e-02
5.530509e-02
5.161039e-02
4.716568e-02
4.189928e-02
3.572932e-02
2.856323e-02
2.029752e-02
1.081792e-02
0.000000e+00
0.000000e+00
8.233169e-03
1.570345e-02
2.245893e-02
2.854670e-02
3.401114e-02
3.889277e-02
4.322761e-02
4.704691e-02
5.037707e-02
5.323972e-02
5.565172e-02
5.762532e-02
5.916810e-02
6.028303e-02
6.096830e-02
6.121723e-02
6.101801e-02
6.035342e-02
5.920042e-02
5.752971e-02
5.530509e-02
5.248288e-02
4.901103e-02
4.482834e-02
3.986347e-02
3.403402e-02
2.724574e-02
1.939197e-02
1.035364e-02
0.000000e+00
0.000000e+00
7.812177e-03
1.485823e-02
2.119600e-02
2.688090e-02
3.196378e-02
3.648989e-02
4.049847e-02
4.402286e-02
4.709071e-02
4.972436e-02
5.194110e-02
5.375345e-02
5.516926e-02
5.619186e-02
5.681996e-02
5.704763e-02
5.686401e-02
5.625312e-02
5.519341e-02
5.365726e-02
5.161039e-02
4.901103e-02
4.580903e-02
4.194474e-02
3.734777e-02
3.193563e-02
2.561245e-02
1.826789e-02
9.776824e-03
0.000000e+00
0.000000e+00
7.292573e-03
1.381687e-02
1.964400e-02
2.483997e-02
2.946326e-02
3.356419e-02
3.718507e-02
4.036091e-02
4.312015e-02
4.548540e-02
4.747398e-02
4.909834e-02
5.036643e-02
5.128178e-02
5.184362e-02
5.204679e-02
5.188158e-02
5.133349e-02
5.038282e-02
4.900415e-02
4.716568e-02
4.482834e-02
4.194474e-02
3.845778e-02
3.429904e-02
2.938683e-02
2.362419e-02
1.689692e-02
9.072389e-03
0.000000e+00
0.000000e+00
6.655901e-03
1.254433e-02
1.775457e-02
2.236576e-02
2.644476e-02
3.004660e-02
3.321585e-02
3.598824e-02
3.839211e-02
4.044956e-02
4.217733e-02
4.358738e-02
4.468739e-02
4.548095e-02
4.596769e-02
4.614329e-02
4.599934e-02
4.552308e-02
4.469708e-02
4.349868e-02
4.189928e-02
3.986347e-02
3.734777e-02
3.429904e-02
3.065240e-02
2.632865e-02
2.123110e-02
1.524215e-02
8.220403e-03
0.000000e+00
0.000000e+00
5.876232e-03
1.099272e-02
1.546377e-02
1.938385e-02
2.282767e-02
2.585331e-02
2.850571e-02
3.081963e-02
3.282190e-02
3.453302e-02
3.596831e-02
3.713866e-02
3.805106e-02
3.870891e-02
3.911215e-02
3.925731e-02
3.913741e-02
3.874175e-02
3.805559e-02
3.705961e-02
3.572932e-02
3.403402e-02
3.193563e-02
2.938683e-02
2.632865e-02
2.268710e-02
1.836862e-02
1.325427e-02
7.193507e-03
0.000000e+00
0.000000e+00
4.915079e-03
9.094279e-03
1.268551e-02
1.579837e-02
1.851188e-02
2.088322e-02
2.295434e-02
2.475640e-02
2.631279e-02
2.764102e-02
2.875399e-02
2.966083e-02
3.036739e-02
3.087656e-02
3.118850e-02
3.130058e-02
3.120740e-02
3.090059e-02
3.036853e-02
2.959593e-02
2.856323e-02
2.724574e-02
2.561245e-02
2.362419e-02
2.123110e-02
1.836862e-02
1.495151e-02
1.086495e-02
5.951993e-03
0.000000e+00
0.000000e+00
3.710491e-03
6.748714e-03
9.301620e-03
1.148536e-02
1.337372e-02
1.501563e-02
1.644491e-02
1.768570e-02
1.875564e-02
1.966771e-02
2.043133e-02
2.105314e-02
2.153740e-02
2.188625e-02
2.209987e-02
2.217651e-02
2.211247e-02
2.190197e-02
2.153693e-02
2.100669e-02
2.029752e-02
1.939197e-02
1.826789e-02
1.689692e-02
1.524215e-02
1.325427e-02
1.086495e-02
7.975044e-03
4.433256e-03
0.000000e+00
0.000000e+00
2.150589e-03
3.800445e-03
5.148085e-03
6.285635e-03
7.262580e-03
8.108714e-03
8.843506e-03
9.480406e-03
1.002903e-02
1.049634e-02
1.088740e-02
1.120570e-02
1.145352e-02
1.163200e-02
1.174126e-02
1.178043e-02
1.174760e-02
1.163981e-02
1.145288e-02
1.118129e-02
1.081792e-02
1.035364e-02
9.776824e-03
9.072389e-03
8.220403e-03
7.193507e-03
5.951993e-03
4.433256e-03
2.526190e-03
0.000000e+00
0.000000e+00
0.000000e+00
0.000000e+00
0.000000e+00
0.000000e+00
0.000000e+00
0.000000e+00
0.000000e+00
0.000000e+00
0.000000e+00
0.000000e+00
0.000000e+00
0.000000e+00
0.000000e+00
0.000000e+00
0.000000e+00
0.000000e+00
0.000000e+00
0.000000e+00
0.000000e+00
0.000000e+00
0.000000e+00
0.000000e+00
0.000000e+00
0.000000e+00
0.000000e+00
0.000000e+00
0.000000e+00
0.000000e+00
0.000000e+00
0.000000e+00
