# vtk DataFile Version 3.0
vtk output
ASCII
DATASET UNSTRUCTURED_GRID
POINTS 961 float
0.000000e+00 0.000000e+00 0.000000e+00
3.333333e-02 0.000000e+00 0.000000e+00
6.666667e-02 0.000000e+00 0.000000e+00
1.000000e-01 0.000000e+00 0.000000e+00
1.333333e-01 0.000000e+00 0.000000e+00
1.666667e-01 0.000000e+00 0.000000e+00
2.000000e-01 0.000000e+00 0.000000e+00
2.333333e-01 0.000000e+00 0.000000e+00
2.666667e-01 0.000000e+00 0.000000e+00
3.000000e-01 0.000000e+00 0.000000e+00
3.333333e-01 0.000000e+00 0.000000e+00
3.666667e-01 0.000000e+00 0.000000e+00
4.000000e-01 0.000000e+00 0.000000e+00
4.333333e-01 0.000000e+00 0.000000e+00
4.666667e-01 0.000000e+00 0.000000e+00
5.000000e-01 0.000000e+00 0.000000e+00
5.333333e-01 0.000000e+00 0.000000e+00
5.666667e-01 0.000000e+00 0.000000e+00
6.000000e-01 0.000000e+00 0.000000e+00
6.333333e-01 0.000000e+00 0.000000e+00
6.666667e-01 0.000000e+00 0.000000e+00
7.000000e-01 0.000000e+00 0.000000e+00
7.333333e-01 0.000000e+00 0.000000e+00
7.666667e-01 0.000000e+00 0.000000e+00
8.000000e-01 0.000000e+00 0.000000e+00
8.333333e-01 0.000000e+00 0.000000e+00
8.666667e-01 0.000000e+00 0.000000e+00
9.000000e-01 0.000000e+00 0.000000e+00
9.333333e-01 0.000000e+00 0.000000e+00
9.666667e-01 0.000000e+00 0.000000e+00
1.000000e+00 0.000000e+00 0.000000e+00
0.000000e+00 3.333333e-02 0.000000e+00
3.333333e-02 3.333333e-02 0.000000e+00
6.666667e-02 3.333333e-02 0.000000e+00
1.000000e-01 3.333333e-02 0.000000e+00
1.333333e-01 3.333333e-02 0.000000e+00
1.666667e-01 3.333333e-02 0.000000e+00
2.000000e-01 3.333333e-02 0.000000e+00
2.333333e-01 3.333333e-02 0.000000e+00
2.666667e-01 3.333333e-02 0.000000e+00
3.000000e-01 3.333333e-02 0.000000e+00
3.333333e-01 3.333333e-02 0.000000e+00
3.666667e-01 3.333333e-02 0.000000e+00
4.000000e-01 3.333333e-02 0.000000e+00
4.333333e-01 3.333333e-02 0.000000e+00
4.666667e-01 3.333333e-02 0.000000e+00
5.000000e-01 3.333333e-02 0.000000e+00
5.333333e-01 3.333333e-02 0.000000e+00
5.666667e-01 3.333333e-02 0.000000e+00
6.000000e-01 3.333333e-02 0.000000e+00
6.333333e-01 3.333333e-02 0.000000e+00
6.666667e-01 3.333333e-02 0.000000e+00
7.000000e-01 3.333333e-02 0.000000e+00
7.333333e-01 3.333333e-02 0.000000e+00
7.666667e-01 3.333333e-02 0.000000e+00
8.000000e-01 3.333333e-02 0.000000e+00
8.333333e-01 3.333333e-02 0.000000e+00
8.666667e-01 3.333333e-02 0.000000e+00
9.000000e-01 3.333333e-02 0.000000e+00
9.333333e-01 3.333333e-02 0.000000e+00
9.666667e-01 3.333333e-02 0.000000e+00
1.000000e+00 3.333333e-02 0.000000e+00
0.000000e+00 6.666667e-02 0.000000e+00
3.333333e-02 6.666667e-02 0.000000e+00
6.666667e-02 6.666667e-02 0.000000e+00
1.000000e-01 6.666667e-02 0.000000e+00
1.333333e-01 6.666667e-02 0.000000e+00
1.666667e-01 6.666667e-02 0.000000e+00
2.000000e-01 6.666667e-02 0.000000e+00
2.333333e-01 6.666667e-02 0.000000e+00
2.666667e-01 6.666667e-02 0.000000e+00
3.000000e-01 6.666667e-02 0.000000e+00
3.333333e-01 6.666667e-02 0.000000e+00
3.666667e-01 6.666667e-02 0.000000e+00
4.000000e-01 6.666667e-02 0.000000e+00
4.333333e-01 6.666667e-02 0.000000e+00
4.666667e-01 6.666667e-02 0.000000e+00
5.000000e-01 6.666667e-02 0.000000e+00
5.333333e-01 6.666667e-02 0.000000e+00
5.666667e-01 6.666667e-02 0.000000e+00
6.000000e-01 6.666667e-02 0.000000e+00
6.333333e-01 6.666667e-02 0.000000e+00
6.666667e-01 6.666667e-02 0.000000e+00
7.000000e-01 6.666667e-02 0.000000e+00
7.333333e-01 6.666667e-02 0.000000e+00
7.666667e-01 6.666667e-02 0.000000e+00
8.000000e-01 6.666667e-02 0.000000e+00
8.333333e-01 6.666667e-02 0.000000e+00
8.666667e-01 6.666667e-02 0.000000e+00
9.000000e-01 6.666667e-02 0.000000e+00
9.333333e-01 6.666667e-02 0.000000e+00
9.666667e-01 6.666667e-02 0.000000e+00
1.000000e+00 6.666667e-02 0.000000e+00
0.000000e+00 1.000000e-01 0.000000e+00
3.333333e-02 1.000000e-01 0.000000e+00
6.666667e-02 1.000000e-01 0.000000e+00
1.000000e-01 1.000000e-01 0.000000e+00
1.333333e-01 1.000000e-01 0.000000e+00
1.666667e-01 1.000000e-01 0.000000e+00
2.000000e-01 1.000000e-01 0.000000e+00
2.333333e-01 1.000000e-01 0.000000e+00
2.666667e-01 1.000000e-01 0.000000e+00
3.000000e-01 1.000000e-01 0.000000e+00
3.333333e-01 1.000000e-01 0.000000e+00
3.666667e-01 1.000000e-01 0.000000e+00
4.000000e-01 1.000000e-01 0.000000e+00
4.333333e-01 1.000000e-01 0.000000e+00
4.666667e-01 1.000000e-01 0.000000e+00
5.000000e-01 1.000000e-01 0.000000e+00
5.333333e-01 1.000000e-01 0.000000e+00
5.666667e-01 1.000000e-01 0.000000e+00
6.000000e-01 1.000000e-01 0.000000e+00
6.333333e-01 1.000000e-01 0.000000e+00
6.666667e-01 1.000000e-01 0.000000e+00
7.000000e-01 1.000000e-01 0.000000e+00
7.333333e-01 1.000000e-01 0.000000e+00
7.666667e-01 1.000000e-01 0.000000e+00
8.000000e-01 1.000000e-01 0.000000e+00
8.333333e-01 1.000000e-01 0.000000e+00
8.666667e-01 1.000000e-01 0.000000e+00
9.000000e-01 1.000000e-01 0.000000e+00
9.333333e-01 1.000000e-01 0.000000e+00
9.666667e-01 1.000000e-01 0.000000e+00
1.000000e+00 1.000000e-01 0.000000e+00
0.000000e+00 1.333333e-01 0.000000e+00
3.333333e-02 1.333333e-01 0.000000e+00
6.666667e-02 1.333333e-01 0.000000e+00
1.000000e-01 1.333333e-01 0.000000e+00
1.333333e-01 1.333333e-01 0.000000e+00
1.666667e-01 1.333333e-01 0.000000e+00
2.000000e-01 1.333333e-01 0.000000e+00
2.333333e-01 1.333333e-01 0.000000e+00
2.666667e-01 1.333333e-01 0.000000e+00
3.000000e-01 1.333333e-01 0.000000e+00
3.333333e-01 1.333333e-01 0.000000e+00
3.666667e-01 1.333333e-01 0.000000e+00
4.000000e-01 1.333333e-01 0.000000e+00
4.333333e-01 1.333333e-01 0.000000e+00
4.666667e-01 1.333333e-01 0.000000e+00
5.000000e-01 1.333333e-01 0.000000e+00
5.333333e-01 1.333333e-01 0.000000e+00
5.666667e-01 1.333333e-01 0.000000e+00
6.000000e-01 1.333333e-01 0.000000e+00
6.333333e-01 1.333333e-01 0.000000e+00
6.666667e-01 1.333333e-01 0.000000e+00
7.000000e-01 1.333333e-01 0.000000e+00
7.333333e-01 1.333333e-01 0.000000e+00
7.666667e-01 1.333333e-01 0.000000e+00
8.000000e-01 1.333333e-01 0.000000e+00
8.333333e-01 1.333333e-01 0.000000e+00
8.666667e-01 1.333333e-01 0.000000e+00
9.000000e-01 1.333333e-01 0.000000e+00
9.333333e-01 1.333333e-01 0.000000e+00
9.666667e-01 1.333333e-01 0.000000e+00
1.000000e+00 1.333333e-01 0.000000e+00
0.000000e+00 1.666667e-01 0.000000e+00
3.333333e-02 1.666667e-01 0.000000e+00
6.666667e-02 1.666667e-01 0.000000e+00
1.000000e-01 1.666667e-01 0.000000e+00
1.333333e-01 1.666667e-01 0.000000e+00
1.666667e-01 1.666667e-01 0.000000e+00
2.000000e-01 1.666667e-01 0.000000e+00
2.333333e-01 1.666667e-01 0.000000e+00
2.666667e-01 1.666667e-01 0.000000e+00
3.000000e-01 1.666667e-01 0.000000e+00
3.333333e-01 1.666667e-01 0.000000e+00
3.666667e-01 1.666667e-01 0.000000e+00
4.000000e-01 1.666667e-01 0.000000e+00
4.333333e-01 1.666667e-01 0.000000e+00
4.666667e-01 1.666667e-01 0.000000e+00
5.000000e-01 1.666667e-01 0.000000e+00
5.333333e-01 1.666667e-01 0.000000e+00
5.666667e-01 1.666667e-01 0.000000e+00
6.000000e-01 1.666667e-01 0.000000e+00
6.333333e-01 1.666667e-01 0.000000e+00
6.666667e-01 1.666667e-01 0.000000e+00
7.000000e-01 1.666667e-01 0.000000e+00
7.333333e-01 1.666667e-01 0.000000e+00
7.666667e-01 1.666667e-01 0.000000e+00
8.000000e-01 1.666667e-01 0.000000e+00
8.333333e-01 1.666667e-01 0.000000e+00
8.666667e-01 1.666667e-01 0.000000e+00
9.000000e-01 1.666667e-01 0.000000e+00
9.333333e-01 1.666667e-01 0.000000e+00
9.666667e-01 1.666667e-01 0.000000e+00
1.000000e+00 1.666667e-01 0.000000e+00
0.000000e+00 2.000000e-01 0.000000e+00
3.333333e-02 2.000000e-01 0.000000e+00
6.666667e-02 2.000000e-01 0.000000e+00
1.000000e-01 2.000000e-01 0.000000e+00
1.333333e-01 2.000000e-01 0.000000e+00
1.666667e-01 2.000000e-01 0.000000e+00
2.000000e-01 2.000000e-01 0.000000e+00
2.333333e-01 2.000000e-01 0.000000e+00
2.666667e-01 2.000000e-01 0.000000e+00
3.000000e-01 2.000000e-01 0.000000e+00
3.333333e-01 2.000000e-01 0.000000e+00
3.666667e-01 2.000000e-01 0.000000e+00
4.000000e-01 2.000000e-01 0.000000e+00
4.333333e-01 2.000000e-01 0.000000e+00
4.666667e-01 2.000000e-01 0.000000e+00
5.000000e-01 2.000000e-01 0.000000e+00
5.333333e-01 2.000000e-01 0.000000e+00
5.666667e-01 2.000000e-01 0.000000e+00
6.000000e-01 2.000000e-01 0.000000e+00
6.333333e-01 2.000000e-01 0.000000e+00
6.666667e-01 2.000000e-01 0.000000e+00
7.000000e-01 2.000000e-01 0.000000e+00
7.333333e-01 2.000000e-01 0.000000e+00
7.666667e-01 2.000000e-01 0.000000e+00
8.000000e-01 2.000000e-01 0.000000e+00
8.333333e-01 2.000000e-01 0.000000e+00
8.666667e-01 2.000000e-01 0.000000e+00
9.000000e-01 2.000000e-01 0.000000e+00
9.333333e-01 2.000000e-01 0.000000e+00
9.666667e-01 2.000000e-01 0.000000e+00
1.000000e+00 2.000000e-01 0.000000e+00
0.000000e+00 2.333333e-01 0.000000e+00
3.333333e-02 2.333333e-01 0.000000e+00
6.666667e-02 2.333333e-01 0.000000e+00
1.000000e-01 2.333333e-01 0.000000e+00
1.333333e-01 2.333333e-01 0.000000e+00
1.666667e-01 2.333333e-01 0.000000e+00
2.000000e-01 2.333333e-01 0.000000e+00
2.333333e-01 2.333333e-01 0.000000e+00
2.666667e-01 2.333333e-01 0.000000e+00
3.000000e-01 2.333333e-01 0.000000e+00
3.333333e-01 2.333333e-01 0.000000e+00
3.666667e-01 2.333333e-01 0.000000e+00
4.000000e-01 2.333333e-01 0.000000e+00
4.333333e-01 2.333333e-01 0.000000e+00
4.666667e-01 2.333333e-01 0.000000e+00
5.000000e-01 2.333333e-01 0.000000e+00
5.333333e-01 2.333333e-01 0.000000e+00
5.666667e-01 2.333333e-01 0.000000e+00
6.000000e-01 2.333333e-01 0.000000e+00
6.333333e-01 2.333333e-01 0.000000e+00
6.666667e-01 2.333333e-01 0.000000e+00
7.000000e-01 2.333333e-01 0.000000e+00
7.333333e-01 2.333333e-01 0.000000e+00
7.666667e-01 2.333333e-01 0.000000e+00
8.000000e-01 2.333333e-01 0.000000e+00
8.333333e-01 2.333333e-01 0.000000e+00
8.666667e-01 2.333333e-01 0.000000e+00
9.000000e-01 2.333333e-01 0.000000e+00
9.333333e-01 2.333333e-01 0.000000e+00
9.666667e-01 2.333333e-01 0.000000e+00
1.000000e+00 2.333333e-01 0.000000e+00
0.000000e+00 2.666667e-01 0.000000e+00
3.333333e-02 2.666667e-01 0.000000e+00
6.666667e-02 2.666667e-01 0.000000e+00
1.000000e-01 2.666667e-01 0.000000e+00
1.333333e-01 2.666667e-01 0.000000e+00
1.666667e-01 2.666667e-01 0.000000e+00
[...]
POINT_DATA 961
SCALARS u float
LOOKUP_TABLE default
0.000000e+00
0.000000e+00
0.000000e+00
0.000000e+00
0.000000e+00
0.000000e+00
0.000000e+00
0.000000e+00
0.000000e+00
0.000000e+00
0.000000e+00
0.000000e+00
0.000000e+00
0.000000e+00
0.000000e+00
0.000000e+00
0.000000e+00
0.000000e+00
0.000000e+00
0.000000e+00
0.000000e+00
0.000000e+00
0.000000e+00
0.000000e+00
0.000000e+00
0.000000e+00
0.000000e+00
0.000000e+00
0.000000e+00
0.000000e+00
0.000000e+00
0.000000e+00
1.803665e-03
3.112879e-03
4.133382e-03
4.960929e-03
5.647170e-03
6.223364e-03
6.710070e-03
7.121612e-03
7.468349e-03
7.757923e-03
7.996008e-03
8.186748e-03
8.333044e-03
8.436726e-03
8.498643e-03
8.518711e-03
8.495895e-03
8.428163e-03
8.312367e-03
8.144082e-03
7.917340e-03
7.624251e-03
7.254412e-03
6.793999e-03
6.224257e-03
5.518844e-03
4.638732e-03
3.521294e-03
2.053830e-03
0.000000e+00
0.000000e+00
3.112879e-03
5.554667e-03
7.526182e-03
9.152557e-03
1.051361e-02
1.166250e-02
1.263624e-02
1.346145e-02
1.415780e-02
1.474001e-02
1.521909e-02
1.560315e-02
1.589786e-02
1.610680e-02
1.623165e-02
1.627218e-02
1.622633e-02
1.609003e-02
1.585700e-02
1.551846e-02
1.506260e-02
1.447388e-02
1.373198e-02
1.281018e-02
1.167281e-02
1.027116e-02
8.536359e-03
6.366757e-03
3.605110e-03
0.000000e+00
0.000000e+00
4.133382e-03
7.526182e-03
1.034335e-02
1.270742e-02
1.470709e-02
1.640681e-02
1.785416e-02
1.908475e-02
2.012563e-02
2.099740e-02
2.171568e-02
2.229204e-02
2.273466e-02
2.304867e-02
2.323644e-02
2.329758e-02
2.322899e-02
2.302462e-02
2.267522e-02
2.216787e-02
2.148534e-02
2.060511e-02
1.949803e-02
1.812634e-02
1.644076e-02
1.437608e-02
1.184455e-02
8.725915e-03
4.853677e-03
0.000000e+00
0.000000e+00
4.960929e-03
9.152557e-03
1.270742e-02
1.573529e-02
1.832324e-02
2.053924e-02
2.243616e-02
2.405523e-02
2.542860e-02
2.658131e-02
2.753262e-02
2.829692e-02
2.888444e-02
2.930161e-02
2.955131e-02
2.963294e-02
2.954236e-02
2.927168e-02
2.880889e-02
2.813734e-02
2.723494e-02
2.607314e-02
2.461540e-02
2.281516e-02
2.061303e-02
1.793288e-02
1.467659e-02
1.071746e-02
5.892958e-03
0.000000e+00
0.000000e+00
5.647170e-03
1.051361e-02
1.470709e-02
1.832324e-02
2.144306e-02
2.413339e-02
2.644865e-02
2.843279e-02
3.012105e-02
3.154144e-02
3.271580e-02
3.366067e-02
3.438782e-02
3.490464e-02
3.521437e-02
3.531610e-02
3.520470e-02
3.487057e-02
3.429925e-02
3.347080e-02
3.235902e-02
3.093030e-02
2.914223e-02
2.694164e-02
2.426212e-02
2.102092e-02
1.711513e-02
1.241765e-02
6.773697e-03
0.000000e+00
0.000000e+00
6.223364e-03
1.166250e-02
1.640681e-02
2.053924e-02
2.413339e-02
2.725270e-02
2.995073e-02
3.227211e-02
3.425351e-02
3.592464e-02
3.730899e-02
3.842451e-02
3.928404e-02
3.989563e-02
4.026264e-02
4.038381e-02
4.025306e-02
3.985928e-02
3.918584e-02
3.821002e-02
3.690219e-02
3.522474e-02
3.313076e-02
3.056232e-02
2.744844e-02
2.370274e-02
1.922079e-02
1.387776e-02
7.526890e-03
0.000000e+00
0.000000e+00
6.710070e-03
1.263624e-02
1.785416e-02
2.243616e-02
2.644865e-02
2.995073e-02
3.299383e-02
3.562190e-02
3.787185e-02
3.977406e-02
4.135288e-02
4.262708e-02
4.361013e-02
4.431039e-02
4.473122e-02
4.487091e-02
4.472253e-02
4.427358e-02
4.350564e-02
4.239366e-02
4.090528e-02
3.899976e-02
3.662688e-02
3.372545e-02
3.022170e-02
2.602753e-02
2.103877e-02
1.513384e-02
8.173144e-03
0.000000e+00
0.000000e+00
7.121612e-03
1.346145e-02
1.908475e-02
2.405523e-02
2.843279e-02
3.227211e-02
3.562190e-02
3.852467e-02
4.101675e-02
4.312847e-02
4.488445e-02
4.630377e-02
4.740013e-02
4.818199e-02
4.865255e-02
4.880961e-02
4.864543e-02
4.814637e-02
4.729245e-02
4.605677e-02
4.440479e-02
4.229347e-02
3.967019e-02
3.647162e-02
3.262243e-02
2.803401e-02
2.260331e-02
1.621213e-02
8.726978e-03
0.000000e+00
0.000000e+00
7.468349e-03
1.415780e-02
2.012563e-02
2.542860e-02
3.012105e-02
3.425351e-02
3.787185e-02
4.101675e-02
4.372349e-02
4.602192e-02
4.793644e-02
4.948609e-02
5.068455e-02
5.154016e-02
5.205583e-02
5.222889e-02
5.205085e-02
5.150707e-02
5.057632e-02
4.923023e-02
4.743261e-02
4.513868e-02
4.229420e-02
3.883451e-02
3.468349e-02
2.975272e-02
2.394065e-02
1.713222e-02
9.199002e-03
0.000000e+00
0.000000e+00
7.757923e-03
1.474001e-02
2.099740e-02
2.658131e-02
3.154144e-02
3.592464e-02
3.977406e-02
4.312847e-02
4.602192e-02
4.848346e-02
5.053701e-02
5.220134e-02
5.348990e-02
5.441077e-02
5.496651e-02
5.515398e-02
5.496402e-02
5.438117e-02
5.338319e-02
5.194053e-02
5.001578e-02
4.756294e-02
4.452668e-02
4.084152e-02
3.643114e-02
3.120762e-02
2.507095e-02
1.790889e-02
9.597117e-03
0.000000e+00
0.000000e+00
7.996008e-03
1.521909e-02
2.171568e-02
2.753262e-02
3.271580e-02
3.730899e-02
4.135288e-02
4.488445e-02
4.793644e-02
5.053701e-02
5.270950e-02
5.447221e-02
5.583826e-02
5.681541e-02
5.740585e-02
5.760596e-02
5.740603e-02
5.678989e-02
5.573451e-02
5.420948e-02
5.217647e-02
4.958863e-02
4.638991e-02
4.251445e-02
3.788595e-02
3.241717e-02
2.600957e-02
1.855325e-02
9.927212e-03
0.000000e+00
0.000000e+00
8.186748e-03
1.560315e-02
2.229204e-02
2.829692e-02
3.366067e-02
3.842451e-02
4.262708e-02
4.630377e-02
4.948609e-02
5.220134e-02
5.447221e-02
5.631652e-02
5.774701e-02
5.877107e-02
5.939053e-02
5.960135e-02
5.939335e-02
5.874980e-02
5.764706e-02
5.605406e-02
5.393185e-02
5.123297e-02
4.790098e-02
4.386984e-02
3.906343e-02
3.339519e-02
2.676785e-02
1.907345e-02
1.019359e-02
0.000000e+00
0.000000e+00
8.333044e-03
1.589786e-02
2.273466e-02
2.888444e-02
3.438782e-02
3.928404e-02
4.361013e-02
4.740013e-02
5.068455e-02
5.348990e-02
5.583826e-02
5.774701e-02
5.922850e-02
6.028977e-02
6.093233e-02
6.115179e-02
6.093758e-02
6.027255e-02
5.913260e-02
5.748622e-02
5.529400e-02
5.250814e-02
4.907193e-02
4.491931e-02
3.997441e-02
3.415128e-02
2.735369e-02
1.947514e-02
1.039920e-02
0.000000e+00
0.000000e+00
8.436726e-03
1.610680e-02
2.304867e-02
2.930161e-02
3.490464e-02
3.989563e-02
4.431039e-02
4.818199e-02
5.154016e-02
5.441077e-02
5.681541e-02
5.877107e-02
6.028977e-02
6.137828e-02
6.203781e-02
6.226371e-02
6.204511e-02
6.136459e-02
6.019772e-02
5.851270e-02
5.626985e-02
5.342114e-02
4.990978e-02
4.566973e-02
4.062538e-02
3.469123e-02
2.777181e-02
1.976171e-02
1.054586e-02
0.000000e+00
0.000000e+00
8.498643e-03
1.623165e-02
2.323644e-02
2.955131e-02
3.521437e-02
4.026264e-02
4.473122e-02
4.865255e-02
5.205583e-02
5.496651e-02
5.740585e-02
5.939053e-02
6.093233e-02
6.203781e-02
6.270799e-02
6.293802e-02
6.271686e-02
6.202689e-02
6.084355e-02
5.913484e-02
5.686096e-02
5.397381e-02
5.041658e-02
4.612328e-02
4.101850e-02
3.501706e-02
2.802396e-02
1.993445e-02
1.063423e-02
0.000000e+00
0.000000e+00
8.518711e-03
1.627218e-02
2.329758e-02
2.963294e-02
3.531610e-02
4.038381e-02
4.487091e-02
4.880961e-02
5.222889e-02
5.515398e-02
5.760596e-02
5.960135e-02
6.115179e-02
6.226371e-02
6.293802e-02
6.316978e-02
6.294788e-02
6.225464e-02
6.106545e-02
5.934829e-02
5.706337e-02
5.416261e-02
5.058923e-02
4.627736e-02
4.115167e-02
3.512714e-02
2.810896e-02
1.999257e-02
1.066393e-02
0.000000e+00
0.000000e+00
8.495895e-03
1.622633e-02
2.322899e-02
2.954236e-02
3.520470e-02
4.025306e-02
4.472253e-02
4.864543e-02
5.205085e-02
5.496402e-02
5.740603e-02
5.939335e-02
6.093758e-02
6.204511e-02
6.271686e-02
6.294788e-02
6.272710e-02
6.203690e-02
6.085275e-02
5.914278e-02
5.686729e-02
5.397836e-02
5.041933e-02
4.612441e-02
4.101833e-02
3.501603e-02
2.802258e-02
1.993319e-02
1.063348e-02
0.000000e+00
0.000000e+00
8.428163e-03
1.609003e-02
2.302462e-02
2.927168e-02
3.487057e-02
3.985928e-02
4.427358e-02
4.814637e-02
5.150707e-02
5.438117e-02
5.678989e-02
5.874980e-02
6.027255e-02
6.136459e-02
6.202689e-02
6.225464e-02
6.203690e-02
6.135624e-02
6.018838e-02
5.850169e-02
5.625678e-02
5.340596e-02
4.989281e-02
4.565167e-02
4.060724e-02
3.467427e-02
2.775741e-02
1.975117e-02
1.054024e-02
0.000000e+00
0.000000e+00
8.312367e-03
1.585700e-02
2.267522e-02
2.880889e-02
3.429925e-02
3.918584e-02
4.350564e-02
4.729245e-02
5.057632e-02
5.338319e-02
5.573451e-02
5.764706e-02
5.913260e-02
6.019772e-02
6.084355e-02
6.106545e-02
6.085275e-02
6.018838e-02
5.904843e-02
5.740171e-02
5.520929e-02
5.242394e-02
4.898956e-02
4.484071e-02
3.990206e-02
3.408804e-02
2.730254e-02
1.943893e-02
1.038030e-02
0.000000e+00
0.000000e+00
8.144082e-03
1.551846e-02
2.216787e-02
2.813734e-02
3.347080e-02
3.821002e-02
4.239366e-02
4.605677e-02
4.923023e-02
5.194053e-02
5.420948e-02
5.605406e-02
5.748622e-02
5.851270e-02
5.913484e-02
5.934829e-02
5.914278e-02
5.850169e-02
5.740171e-02
5.581231e-02
5.369524e-02
5.100392e-02
4.768284e-02
4.366690e-02
3.888082e-02
3.323859e-02
2.664312e-02
1.898612e-02
1.014829e-02
0.000000e+00
0.000000e+00
7.917340e-03
1.506260e-02
2.148534e-02
2.723494e-02
3.235902e-02
3.690219e-02
4.090528e-02
4.440479e-02
4.743261e-02
5.001578e-02
5.217647e-02
5.393185e-02
5.529400e-02
5.626985e-02
5.686096e-02
5.706337e-02
5.686729e-02
5.625678e-02
5.520929e-02
5.369524e-02
5.167734e-02
4.911001e-02
4.593861e-02
4.209868e-02
3.751515e-02
3.210161e-02
2.575976e-02
1.837910e-02
9.837132e-03
0.000000e+00
0.000000e+00
7.624251e-03
1.447388e-02
2.060511e-02
2.607314e-02
3.093030e-02
3.522474e-02
3.899976e-02
4.229347e-02
4.513868e-02
4.756294e-02
4.958863e-02
5.123297e-02
5.250814e-02
5.342114e-02
5.397381e-02
5.416261e-02
5.397836e-02
5.340596e-02
5.242394e-02
5.100392e-02
4.911001e-02
4.669804e-02
4.371472e-02
4.009665e-02
3.576934e-02
3.064619e-02
2.462757e-02
1.760032e-02
9.437654e-03
0.000000e+00
0.000000e+00
7.254412e-03
1.373198e-02
1.949803e-02
2.461540e-02
2.914223e-02
3.313076e-02
3.662688e-02
3.967019e-02
4.229420e-02
4.452668e-02
4.638991e-02
4.790098e-02
4.907193e-02
4.990978e-02
5.041658e-02
5.058923e-02
5.041933e-02
4.989281e-02
4.898956e-02
4.768284e-02
4.593861e-02
4.371472e-02
4.095984e-02
3.761237e-02
3.359903e-02
2.883350e-02
2.321500e-02
1.662724e-02
8.938020e-03
0.000000e+00
0.000000e+00
6.793999e-03
1.281018e-02
1.812634e-02
2.281516e-02
2.694164e-02
3.056232e-02
3.372545e-02
3.647162e-02
3.883451e-02
4.084152e-02
4.251445e-02
4.386984e-02
4.491931e-02
4.566973e-02
4.612328e-02
4.627736e-02
4.612441e-02
4.565167e-02
4.484071e-02
4.366690e-02
4.209868e-02
4.009665e-02
3.761237e-02
3.458701e-02
3.094959e-02
2.661501e-02
2.148195e-02
1.543087e-02
8.322838e-03
0.000000e+00
0.000000e+00
6.224257e-03
1.167281e-02
1.644076e-02
2.061303e-02
2.426212e-02
2.744844e-02
3.022170e-02
3.262243e-02
3.468349e-02
3.643114e-02
3.788595e-02
3.906343e-02
3.997441e-02
4.062538e-02
4.101850e-02
4.115167e-02
4.101833e-02
4.060724e-02
3.990206e-02
3.888082e-02
3.751515e-02
3.576934e-02
3.359903e-02
3.094959e-02
2.775395e-02
2.392996e-02
1.937716e-02
1.397336e-02
7.571692e-03
0.000000e+00
0.000000e+00
5.518844e-03
1.027116e-02
1.437608e-02
1.793288e-02
2.102092e-02
2.370274e-02
2.602753e-02
2.803401e-02
2.975272e-02
3.120762e-02
3.241717e-02
3.339519e-02
3.415128e-02
3.469123e-02
3.501706e-02
3.512714e-02
3.501603e-02
3.467427e-02
3.408804e-02
3.323859e-02
3.210161e-02
3.064619e-02
2.883350e-02
2.661501e-02
2.392996e-02
2.070191e-02
1.683421e-02
1.220412e-02
6.656573e-03
0.000000e+00
0.000000e+00
4.638732e-03
8.536359e-03
1.184455e-02
1.467659e-02
1.711513e-02
1.922079e-02
2.103877e-02
2.260331e-02
2.394065e-02
2.507095e-02
2.600957e-02
2.676785e-02
2.735369e-02
2.777181e-02
2.802396e-02
2.810896e-02
2.802258e-02
2.775741e-02
2.730254e-02
2.664312e-02
2.575976e-02
2.462757e-02
2.321500e-02
2.148195e-02
1.937716e-02
1.683421e-02
1.376548e-02
1.005320e-02
5.536941e-03
0.000000e+00
0.000000e+00
3.521294e-03
6.366757e-03
8.725915e-03
1.071746e-02
1.241765e-02
1.387776e-02
1.513384e-02
1.621213e-02
1.713222e-02
1.790889e-02
1.855325e-02
1.907345e-02
1.947514e-02
1.976171e-02
1.993445e-02
1.999257e-02
1.993319e-02
1.975117e-02
1.943893e-02
1.898612e-02
1.837910e-02
1.760032e-02
1.662724e-02
1.543087e-02
1.397336e-02
1.220412e-02
1.005320e-02
7.419452e-03
4.149169e-03
0.000000e+00
0.000000e+00
2.053830e-03
3.605110e-03
4.853677e-03
5.892958e-03
6.773697e-03
7.526890e-03
8.173144e-03
8.726978e-03
9.199002e-03
9.597117e-03
9.927212e-03
1.019359e-02
1.039920e-02
1.054586e-02
1.063423e-02
1.066393e-02
1.063348e-02
1.054024e-02
1.038030e-02
1.014829e-02
9.837132e-03
9.437654e-03
8.938020e-03
8.322838e-03
7.571692e-03
6.656573e-03
5.536941e-03
4.149169e-03
2.380928e-03
0.000000e+00
0.000000e+00
0.000000e+00
0.000000e+00
0.000000e+00
0.000000e+00
0.000000e+00
0.000000e+00
0.000000e+00
0.000000e+00
0.000000e+00
0.000000e+00
0.000000e+00
0.000000e+00
0.000000e+00
0.000000e+00
0.000000e+00
0.000000e+00
0.000000e+00
0.000000e+00
0.000000e+00
0.000000e+00
0.000000e+00
0.000000e+00
0.000000e+00
0.000000e+00
0.000000e+00
0.000000e+00
0.000000e+00
0.000000e+00
0.000000e+00
0.000000e+00
