# vtk DataFile Version 3.0
vtk output
ASCII
DATASET UNSTRUCTURED_GRID
POINTS 961 float
0.000000e+00 0.000000e+00 0.000000e+00
3.333333e-02 0.000000e+00 0.000000e+00
6.666667e-02 0.000000e+00 0.000000e+00
1.000000e-01 0.000000e+00 0.000000e+00
1.333333e-01 0.000000e+00 0.000000e+00
1.666667e-01 0.000000e+00 0.000000e+00
2.000000e-01 0.000000e+00 0.000000e+00
2.333333e-01 0.000000e+00 0.000000e+00
2.666667e-01 0.000000e+00 0.000000e+00
3.000000e-01 0.000000e+00 0.000000e+00
3.333333e-01 0.000000e+00 0.000000e+00
3.666667e-01 0.000000e+00 0.000000e+00
4.000000e-01 0.000000e+00 0.000000e+00
4.333333e-01 0.000000e+00 0.000000e+00
4.666667e-01 0.000000e+00 0.000000e+00
5.000000e-01 0.000000e+00 0.000000e+00
5.333333e-01 0.000000e+00 0.000000e+00
5.666667e-01 0.000000e+00 0.000000e+00
6.000000e-01 0.000000e+00 0.000000e+00
6.333333e-01 0.000000e+00 0.000000e+00
6.666667e-01 0.000000e+00 0.000000e+00
7.000000e-01 0.000000e+00 0.000000e+00
7.333333e-01 0.000000e+00 0.000000e+00
7.666667e-01 0.000000e+00 0.000000e+00
8.000000e-01 0.000000e+00 0.000000e+00
8.333333e-01 0.000000e+00 0.000000e+00
8.666667e-01 0.000000e+00 0.000000e+00
9.000000e-01 0.000000e+00 0.000000e+00
9.333333e-01 0.000000e+00 0.000000e+00
9.666667e-01 0.000000e+00 0.000000e+00
1.000000e+00 0.000000e+00 0.000000e+00
0.000000e+00 3.333333e-02 0.000000e+00
3.333333e-02 3.333333e-02 0.000000e+00
6.666667e-02 3.333333e-02 0.000000e+00
1.000000e-01 3.333333e-02 0.000000e+00
1.333333e-01 3.333333e-02 0.000000e+00
1.666667e-01 3.333333e-02 0.000000e+00
2.000000e-01 3.333333e-02 0.000000e+00
2.333333e-01 3.333333e-02 0.000000e+00
2.666667e-01 3.333333e-02 0.000000e+00
3.000000e-01 3.333333e-02 0.000000e+00
3.333333e-01 3.333333e-02 0.000000e+00
3.666667e-01 3.333333e-02 0.000000e+00
4.000000e-01 3.333333e-02 0.000000e+00
4.333333e-01 3.333333e-02 0.000000e+00
4.666667e-01 3.333333e-02 0.000000e+00
5.000000e-01 3.333333e-02 0.000000e+00
5.333333e-01 3.333333e-02 0.000000e+00
5.666667e-01 3.333333e-02 0.000000e+00
6.000000e-01 3.333333e-02 0.000000e+00
6.333333e-01 3.333333e-02 0.000000e+00
6.666667e-01 3.333333e-02 0.000000e+00
7.000000e-01 3.333333e-02 0.000000e+00
7.333333e-01 3.333333e-02 0.000000e+00
7.666667e-01 3.333333e-02 0.000000e+00
8.000000e-01 3.333333e-02 0.000000e+00
8.333333e-01 3.333333e-02 0.000000e+00
8.666667e-01 3.333333e-02 0.000000e+00
9.000000e-01 3.333333e-02 0.000000e+00
9.333333e-01 3.333333e-02 0.000000e+00
9.666667e-01 3.333333e-02 0.000000e+00
1.000000e+00 3.333333e-02 0.000000e+00
0.000000e+00 6.666667e-02 0.000000e+00
3.333333e-02 6.666667e-02 0.000000e+00
6.666667e-02 6.666667e-02 0.000000e+00
1.000000e-01 6.666667e-02 0.000000e+00
1.333333e-01 6.666667e-02 0.000000e+00
1.666667e-01 6.666667e-02 0.000000e+00
2.000000e-01 6.666667e-02 0.000000e+00
2.333333e-01 6.666667e-02 0.000000e+00
2.666667e-01 6.666667e-02 0.000000e+00
3.000000e-01 6.666667e-02 0.000000e+00
3.333333e-01 6.666667e-02 0.000000e+00
3.666667e-01 6.666667e-02 0.000000e+00
4.000000e-01 6.666667e-02 0.000000e+00
4.333333e-01 6.666667e-02 0.000000e+00
4.666667e-01 6.666667e-02 0.000000e+00
5.000000e-01 6.666667e-02 0.000000e+00
5.333333e-01 6.666667e-02 0.000000e+00
5.666667e-01 6.666667e-02 0.000000e+00
6.000000e-01 6.666667e-02 0.000000e+00
6.333333e-01 6.666667e-02 0.000000e+00
6.666667e-01 6.666667e-02 0.000000e+00
7.000000e-01 6.666667e-02 0.000000e+00
7.333333e-01 6.666667e-02 0.000000e+00
7.666667e-01 6.666667e-02 0.000000e+00
8.000000e-01 6.666667e-02 0.000000e+00
8.333333e-01 6.666667e-02 0.000000e+00
8.666667e-01 6.666667e-02 0.000000e+00
9.000000e-01 6.666667e-02 0.000000e+00
9.333333e-01 6.666667e-02 0.000000e+00
9.666667e-01 6.666667e-02 0.000000e+00
1.000000e+00 6.666667e-02 0.000000e+00
0.000000e+00 1.000000e-01 0.000000e+00
3.333333e-02 1.000000e-01 0.000000e+00
6.666667e-02 1.000000e-01 0.000000e+00
1.000000e-01 1.000000e-01 0.000000e+00
1.333333e-01 1.000000e-01 0.000000e+00
1.666667e-01 1.000000e-01 0.000000e+00
2.000000e-01 1.000000e-01 0.000000e+00
2.333333e-01 1.000000e-01 0.000000e+00
2.666667e-01 1.000000e-01 0.000000e+00
3.000000e-01 1.000000e-01 0.000000e+00
3.333333e-01 1.000000e-01 0.000000e+00
3.666667e-01 1.000000e-01 0.000000e+00
4.000000e-01 1.000000e-01 0.000000e+00
4.333333e-01 1.000000e-01 0.000000e+00
4.666667e-01 1.000000e-01 0.000000e+00
5.000000e-01 1.000000e-01 0.000000e+00
5.333333e-01 1.000000e-01 0.000000e+00
5.666667e-01 1.000000e-01 0.000000e+00
6.000000e-01 1.000000e-01 0.000000e+00
6.333333e-01 1.000000e-01 0.000000e+00
6.666667e-01 1.000000e-01 0.000000e+00
7.000000e-01 1.000000e-01 0.000000e+00
7.333333e-01 1.000000e-01 0.000000e+00
7.666667e-01 1.000000e-01 0.000000e+00
8.000000e-01 1.000000e-01 0.000000e+00
8.333333e-01 1.000000e-01 0.000000e+00
8.666667e-01 1.000000e-01 0.000000e+00
9.000000e-01 1.000000e-01 0.000000e+00
9.333333e-01 1.000000e-01 0.000000e+00
9.666667e-01 1.000000e-01 0.000000e+00
1.000000e+00 1.000000e-01 0.000000e+00
0.000000e+00 1.333333e-01 0.000000e+00
3.333333e-02 1.333333e-01 0.000000e+00
6.666667e-02 1.333333e-01 0.000000e+00
1.000000e-01 1.333333e-01 0.000000e+00
1.333333e-01 1.333333e-01 0.000000e+00
1.666667e-01 1.333333e-01 0.000000e+00
2.000000e-01 1.333333e-01 0.000000e+00
2.333333e-01 1.333333e-01 0.000000e+00
2.666667e-01 1.333333e-01 0.000000e+00
3.000000e-01 1.333333e-01 0.000000e+00
3.333333e-01 1.333333e-01 0.000000e+00
3.666667e-01 1.333333e-01 0.000000e+00
4.000000e-01 1.333333e-01 0.000000e+00
4.333333e-01 1.333333e-01 0.000000e+00
4.666667e-01 1.333333e-01 0.000000e+00
5.000000e-01 1.333333e-01 0.000000e+00
5.333333e-01 1.333333e-01 0.000000e+00
5.666667e-01 1.333333e-01 0.000000e+00
6.000000e-01 1.333333e-01 0.000000e+00
6.333333e-01 1.333333e-01 0.000000e+00
6.666667e-01 1.333333e-01 0.000000e+00
7.000000e-01 1.333333e-01 0.000000e+00
7.333333e-01 1.333333e-01 0.000000e+00
7.666667e-01 1.333333e-01 0.000000e+00
8.000000e-01 1.333333e-01 0.000000e+00
8.333333e-01 1.333333e-01 0.000000e+00
8.666667e-01 1.333333e-01 0.000000e+00
9.000000e-01 1.333333e-01 0.000000e+00
9.333333e-01 1.333333e-01 0.000000e+00
9.666667e-01 1.333333e-01 0.000000e+00
1.000000e+00 1.333333e-01 0.000000e+00
0.000000e+00 1.666667e-01 0.000000e+00
3.333333e-02 1.666667e-01 0.000000e+00
6.666667e-02 1.666667e-01 0.000000e+00
1.000000e-01 1.666667e-01 0.000000e+00
1.333333e-01 1.666667e-01 0.000000e+00
1.666667e-01 1.666667e-01 0.000000e+00
2.000000e-01 1.666667e-01 0.000000e+00
2.333333e-01 1.666667e-01 0.000000e+00
2.666667e-01 1.666667e-01 0.000000e+00
3.000000e-01 1.666667e-01 0.000000e+00
3.333333e-01 1.666667e-01 0.000000e+00
3.666667e-01 1.666667e-01 0.000000e+00
4.000000e-01 1.666667e-01 0.000000e+00
4.333333e-01 1.666667e-01 0.000000e+00
4.666667e-01 1.666667e-01 0.000000e+00
5.000000e-01 1.666667e-01 0.000000e+00
5.333333e-01 1.666667e-01 0.000000e+00
5.666667e-01 1.666667e-01 0.000000e+00
6.000000e-01 1.666667e-01 0.000000e+00
6.333333e-01 1.666667e-01 0.000000e+00
6.666667e-01 1.666667e-01 0.000000e+00
7.000000e-01 1.666667e-01 0.000000e+00
7.333333e-01 1.666667e-01 0.000000e+00
7.666667e-01 1.666667e-01 0.000000e+00
8.000000e-01 1.666667e-01 0.000000e+00
8.333333e-01 1.666667e-01 0.000000e+00
8.666667e-01 1.666667e-01 0.000000e+00
9.000000e-01 1.666667e-01 0.000000e+00
9.333333e-01 1.666667e-01 0.000000e+00
9.666667e-01 1.666667e-01 0.000000e+00
1.000000e+00 1.666667e-01 0.000000e+00
0.000000e+00 2.000000e-01 0.000000e+00
3.333333e-02 2.000000e-01 0.000000e+00
6.666667e-02 2.000000e-01 0.000000e+00
1.000000e-01 2.000000e-01 0.000000e+00
1.333333e-01 2.000000e-01 0.000000e+00
1.666667e-01 2.000000e-01 0.000000e+00
2.000000e-01 2.000000e-01 0.000000e+00
2.333333e-01 2.000000e-01 0.000000e+00
2.666667e-01 2.000000e-01 0.000000e+00
3.000000e-01 2.000000e-01 0.000000e+00
3.333333e-01 2.000000e-01 0.000000e+00
3.666667e-01 2.000000e-01 0.000000e+00
4.000000e-01 2.000000e-01 0.000000e+00
4.333333e-01 2.000000e-01 0.000000e+00
4.666667e-01 2.000000e-01 0.000000e+00
5.000000e-01 2.000000e-01 0.000000e+00
5.333333e-01 2.000000e-01 0.000000e+00
5.666667e-01 2.000000e-01 0.000000e+00
6.000000e-01 2.000000e-01 0.000000e+00
6.333333e-01 2.000000e-01 0.000000e+00
6.666667e-01 2.000000e-01 0.000000e+00
7.000000e-01 2.000000e-01 0.000000e+00
7.333333e-01 2.000000e-01 0.000000e+00
7.666667e-01 2.000000e-01 0.000000e+00
8.000000e-01 2.000000e-01 0.000000e+00
8.333333e-01 2.000000e-01 0.000000e+00
8.666667e-01 2.000000e-01 0.000000e+00
9.000000e-01 2.000000e-01 0.000000e+00
9.333333e-01 2.000000e-01 0.000000e+00
9.666667e-01 2.000000e-01 0.000000e+00
1.000000e+00 2.000000e-01 0.000000e+00
0.000000e+00 2.333333e-01 0.000000e+00
3.333333e-02 2.333333e-01 0.000000e+00
6.666667e-02 2.333333e-01 0.000000e+00
1.000000e-01 2.333333e-01 0.000000e+00
1.333333e-01 2.333333e-01 0.000000e+00
1.666667e-01 2.333333e-01 0.000000e+00
2.000000e-01 2.333333e-01 0.000000e+00
2.333333e-01 2.333333e-01 0.000000e+00
2.666667e-01 2.333333e-01 0.000000e+00
3.000000e-01 2.333333e-01 0.000000e+00
3.333333e-01 2.333333e-01 0.000000e+00
3.666667e-01 2.333333e-01 0.000000e+00
4.000000e-01 2.333333e-01 0.000000e+00
4.333333e-01 2.333333e-01 0.000000e+00
4.666667e-01 2.333333e-01 0.000000e+00
5.000000e-01 2.333333e-01 0.000000e+00
5.333333e-01 2.333333e-01 0.000000e+00
5.666667e-01 2.333333e-01 0.000000e+00
6.000000e-01 2.333333e-01 0.000000e+00
6.333333e-01 2.333333e-01 0.000000e+00
6.666667e-01 2.333333e-01 0.000000e+00
7.000000e-01 2.333333e-01 0.000000e+00
7.333333e-01 2.333333e-01 0.000000e+00
7.666667e-01 2.333333e-01 0.000000e+00
8.000000e-01 2.333333e-01 0.000000e+00
8.333333e-01 2.333333e-01 0.000000e+00
8.666667e-01 2.333333e-01 0.000000e+00
9.000000e-01 2.333333e-01 0.000000e+00
9.333333e-01 2.333333e-01 0.000000e+00
9.666667e-01 2.333333e-01 0.000000e+00
1.000000e+00 2.333333e-01 0.000000e+00
0.000000e+00 2.666667e-01 0.000000e+00
3.333333e-02 2.666667e-01 0.000000e+00
6.666667e-02 2.666667e-01 0.000000e+00
1.000000e-01 2.666667e-01 0.000000e+00
1.333333e-01 2.666667e-01 0.000000e+00
1.666667e-01 2.666667e-01 0.000000e+00
[...]
POINT_DATA 961
SCALARS u float
LOOKUP_TABLE default
0.000000e+00
0.000000e+00
0.000000e+00
0.000000e+00
0.000000e+00
0.000000e+00
0.000000e+00
0.000000e+00
0.000000e+00
0.000000e+00
0.000000e+00
0.000000e+00
0.000000e+00
0.000000e+00
0.000000e+00
0.000000e+00
0.000000e+00
0.000000e+00
0.000000e+00
0.000000e+00
0.000000e+00
0.000000e+00
0.000000e+00
0.000000e+00
0.000000e+00
0.000000e+00
0.000000e+00
0.000000e+00
0.000000e+00
0.000000e+00
0.000000e+00
0.000000e+00
1.868365e-03
3.243454e-03
4.330094e-03
5.223152e-03
5.973430e-03
6.611385e-03
7.156831e-03
7.623393e-03
8.020784e-03
8.356057e-03
8.634337e-03
8.859275e-03
9.033320e-03
9.157896e-03
9.233491e-03
9.259704e-03
9.235231e-03
9.157816e-03
9.024144e-03
8.829676e-03
8.568398e-03
8.232442e-03
7.811512e-03
7.291979e-03
6.655387e-03
5.875807e-03
4.914751e-03
3.710266e-03
2.150475e-03
0.000000e+00
0.000000e+00
3.243454e-03
5.818201e-03
7.923221e-03
9.681854e-03
1.117220e-02
1.244582e-02
1.353819e-02
1.447452e-02
1.527320e-02
1.594772e-02
1.650801e-02
1.696116e-02
1.731193e-02
1.756310e-02
1.771558e-02
1.776853e-02
1.771934e-02
1.756348e-02
1.729434e-02
1.690291e-02
1.637728e-02
1.570198e-02
1.485688e-02
1.381567e-02
1.254329e-02
1.099186e-02
9.093615e-03
6.748261e-03
3.800213e-03
0.000000e+00
0.000000e+00
4.330094e-03
7.923221e-03
1.094157e-02
1.350499e-02
1.569958e-02
1.758737e-02
1.921361e-02
2.061182e-02
2.180704e-02
2.281808e-02
2.365888e-02
2.433950e-02
2.486672e-02
2.524445e-02
2.547394e-02
2.555384e-02
2.548021e-02
2.524634e-02
2.484246e-02
2.425532e-02
2.346755e-02
2.245671e-02
2.119397e-02
1.964219e-02
1.775300e-02
1.546248e-02
1.268451e-02
9.300934e-03
5.147735e-03
0.000000e+00
0.000000e+00
5.223152e-03
9.681854e-03
1.350499e-02
1.679874e-02
1.964674e-02
2.211369e-02
2.424938e-02
2.609220e-02
2.767165e-02
2.901034e-02
3.012527e-02
3.102882e-02
3.172935e-02
3.223164e-02
3.253709e-02
3.264379e-02
3.254651e-02
3.223645e-02
3.170093e-02
3.092283e-02
2.987992e-02
2.854373e-02
2.687818e-02
2.483754e-02
2.236366e-02
1.938212e-02
1.579702e-02
1.148444e-02
6.285166e-03
0.000000e+00
0.000000e+00
5.973430e-03
1.117220e-02
1.569958e-02
1.964674e-02
2.309039e-02
2.609329e-02
2.870603e-02
3.096899e-02
3.291411e-02
3.456633e-02
3.594471e-02
3.706321e-02
3.793130e-02
3.855430e-02
3.893357e-02
3.906659e-02
3.894687e-02
3.856367e-02
3.790169e-02
3.694045e-02
3.565350e-02
3.400743e-02
3.196038e-02
2.946023e-02
2.644214e-02
2.282550e-02
1.851020e-02
1.337257e-02
7.261994e-03
0.000000e+00
0.000000e+00
6.611385e-03
1.244582e-02
1.758737e-02
2.211369e-02
2.609329e-02
2.958474e-02
3.263705e-02
3.529057e-02
3.757801e-02
3.952541e-02
4.115292e-02
4.247543e-02
4.350300e-02
4.424119e-02
4.469115e-02
4.484966e-02
4.470904e-02
4.425681e-02
4.347534e-02
4.234128e-02
4.082475e-02
3.888834e-02
3.648583e-02
3.356056e-02
3.004347e-02
2.585072e-02
2.088122e-02
1.501426e-02
8.108014e-03
0.000000e+00
0.000000e+00
7.156831e-03
1.353819e-02
1.921361e-02
2.424938e-02
2.870603e-02
3.263705e-02
3.608861e-02
3.909970e-02
4.170264e-02
4.392358e-02
4.578298e-02
4.729606e-02
4.847307e-02
4.931948e-02
4.983609e-02
5.001895e-02
4.985921e-02
4.934288e-02
4.845034e-02
4.715582e-02
4.542669e-02
4.322248e-02
4.049377e-02
3.718087e-02
3.321222e-02
2.850271e-02
2.295202e-02
1.644332e-02
8.842696e-03
0.000000e+00
0.000000e+00
7.623393e-03
1.447452e-02
2.061182e-02
2.609220e-02
3.096899e-02
3.529057e-02
3.909970e-02
4.243331e-02
4.532253e-02
4.779293e-02
4.986470e-02
5.155292e-02
5.286765e-02
5.381410e-02
5.439253e-02
5.459825e-02
5.442137e-02
5.384651e-02
5.285241e-02
5.141134e-02
4.948849e-02
4.704111e-02
4.401755e-02
4.035617e-02
3.598414e-02
3.081624e-02
2.475379e-02
1.768391e-02
9.479491e-03
0.000000e+00
0.000000e+00
8.020784e-03
1.527320e-02
2.180704e-02
2.767165e-02
3.291411e-02
3.757801e-02
4.170264e-02
4.532253e-02
4.846722e-02
5.116123e-02
5.342412e-02
5.527045e-02
5.670988e-02
5.774713e-02
5.838190e-02
5.860872e-02
5.841673e-02
5.778941e-02
5.670408e-02
5.513149e-02
5.303516e-02
5.037066e-02
4.708484e-02
4.311491e-02
3.838758e-02
3.281815e-02
2.630990e-02
1.875366e-02
1.002801e-02
0.000000e+00
0.000000e+00
8.356057e-03
1.594772e-02
2.281808e-02
2.901034e-02
3.456633e-02
3.952541e-02
4.392358e-02
4.779293e-02
5.116123e-02
5.405178e-02
5.648320e-02
5.846939e-02
6.001941e-02
6.113739e-02
6.182242e-02
6.206829e-02
6.186329e-02
6.118988e-02
6.002428e-02
5.833603e-02
5.608738e-02
5.323274e-02
4.971797e-02
4.547970e-02
4.044463e-02
3.452894e-02
2.763787e-02
1.966555e-02
1.049524e-02
0.000000e+00
0.000000e+00
8.634337e-03
1.650801e-02
2.365888e-02
3.012527e-02
3.594471e-02
4.115292e-02
4.578298e-02
4.986470e-02
5.342412e-02
5.648320e-02
5.905960e-02
6.116640e-02
6.281202e-02
6.399997e-02
6.472869e-02
6.499132e-02
6.477539e-02
6.406252e-02
6.282805e-02
6.104057e-02
5.866143e-02
5.564424e-02
5.193425e-02
4.746786e-02
4.217204e-02
3.596394e-02
2.875062e-02
2.042902e-02
1.088621e-02
0.000000e+00
0.000000e+00
8.859275e-03
1.696116e-02
2.433950e-02
3.102882e-02
3.706321e-02
4.247543e-02
4.729606e-02
5.155292e-02
5.527045e-02
5.846939e-02
6.116640e-02
6.337380e-02
6.509932e-02
6.634588e-02
6.711133e-02
6.738819e-02
6.716338e-02
6.641785e-02
6.512623e-02
6.325641e-02
6.076911e-02
5.761740e-02
5.374620e-02
4.909187e-02
4.358179e-02
3.713403e-02
2.965726e-02
2.105070e-02
1.120445e-02
0.000000e+00
0.000000e+00
9.033320e-03
1.731193e-02
2.486672e-02
3.172935e-02
3.793130e-02
4.350300e-02
4.847307e-02
5.286765e-02
5.670988e-02
6.001941e-02
6.281202e-02
6.509932e-02
6.688844e-02
6.818175e-02
6.897659e-02
6.926498e-02
6.903332e-02
6.826204e-02
6.692526e-02
6.499037e-02
6.241765e-02
5.915983e-02
5.516169e-02
5.035966e-02
4.468154e-02
3.804623e-02
3.036365e-02
2.153484e-02
1.145221e-02
0.000000e+00
0.000000e+00
9.157896e-03
1.756310e-02
2.524445e-02
3.223164e-02
3.855430e-02
4.424119e-02
4.931948e-02
5.381410e-02
5.774713e-02
6.113739e-02
6.399997e-02
6.634588e-02
6.818175e-02
6.950951e-02
7.032609e-02
7.062311e-02
7.038660e-02
6.959662e-02
6.822691e-02
6.624456e-02
6.360956e-02
6.027448e-02
5.618403e-02
5.127479e-02
4.547490e-02
3.870391e-02
3.087270e-02
2.188361e-02
1.163065e-02
0.000000e+00
0.000000e+00
9.233491e-03
1.771558e-02
2.547394e-02
3.253709e-02
3.893357e-02
4.469115e-02
4.983609e-02
5.439253e-02
5.838190e-02
6.182242e-02
6.472869e-02
6.711133e-02
6.897659e-02
7.032609e-02
7.115646e-02
7.145908e-02
7.121971e-02
7.041819e-02
6.902806e-02
6.701622e-02
6.434256e-02
6.095956e-02
5.681196e-02
5.183647e-02
4.596151e-02
3.910704e-02
3.118455e-02
2.209717e-02
1.173988e-02
0.000000e+00
0.000000e+00
9.259704e-03
1.776853e-02
2.555384e-02
3.264379e-02
3.906659e-02
4.484966e-02
5.001895e-02
5.459825e-02
5.860872e-02
6.206829e-02
6.499132e-02
6.738819e-02
6.926498e-02
7.062311e-02
7.145908e-02
7.176412e-02
7.152390e-02
7.071816e-02
6.932040e-02
6.729750e-02
6.460932e-02
6.120839e-02
5.703953e-02
5.203956e-02
4.613704e-02
3.925214e-02
3.129659e-02
2.217378e-02
1.177903e-02
0.000000e+00
0.000000e+00
9.235231e-03
1.771934e-02
2.548021e-02
3.254651e-02
3.894687e-02
4.470904e-02
4.985921e-02
5.442137e-02
5.841673e-02
6.186329e-02
6.477539e-02
6.716338e-02
6.903332e-02
7.038660e-02
7.121971e-02
7.152390e-02
7.128486e-02
7.048242e-02
6.909018e-02
6.707510e-02
6.439722e-02
6.100917e-02
5.685592e-02
5.187436e-02
4.599309e-02
3.913225e-02
3.120341e-02
2.210975e-02
1.174621e-02
0.000000e+00
0.000000e+00
9.157816e-03
1.756348e-02
2.524634e-02
3.223645e-02
3.856367e-02
4.425681e-02
4.934288e-02
5.384651e-02
5.778941e-02
6.118988e-02
6.406252e-02
6.641785e-02
6.826204e-02
6.959662e-02
7.041819e-02
7.071816e-02
7.048242e-02
6.969103e-02
6.831782e-02
6.633006e-02
6.368804e-02
6.034469e-02
5.624513e-02
5.132636e-02
4.551691e-02
3.873665e-02
3.089665e-02
2.189928e-02
1.163843e-02
0.000000e+00
0.000000e+00
9.024144e-03
1.729434e-02
2.484246e-02
3.170093e-02
3.790169e-02
4.347534e-02
4.845034e-02
5.285241e-02
5.670408e-02
6.002428e-02
6.282805e-02
6.512623e-02
6.692526e-02
6.822691e-02
6.902806e-02
6.932040e-02
6.909018e-02
6.831782e-02
6.697761e-02
6.503729e-02
6.245761e-02
5.919190e-02
5.518560e-02
5.037585e-02
4.469106e-02
3.805060e-02
3.036468e-02
2.153430e-02
1.145153e-02
0.000000e+00
0.000000e+00
8.829676e-03
1.690291e-02
2.425532e-02
3.092283e-02
3.694045e-02
4.234128e-02
4.715582e-02
5.141134e-02
5.513149e-02
5.833603e-02
6.104057e-02
6.325641e-02
6.499037e-02
6.624456e-02
6.701622e-02
6.729750e-02
6.707510e-02
6.633006e-02
6.503729e-02
6.316522e-02
6.067530e-02
5.752149e-02
5.364974e-02
4.899744e-02
4.349287e-02
3.705481e-02
2.959222e-02
2.100416e-02
1.117999e-02
0.000000e+00
0.000000e+00
8.568398e-03
1.637728e-02
2.346755e-02
2.987992e-02
3.565350e-02
4.082475e-02
4.542669e-02
4.948849e-02
5.303516e-02
5.608738e-02
5.866143e-02
6.076911e-02
6.241765e-02
6.360956e-02
6.434256e-02
6.460932e-02
6.439722e-02
6.368804e-02
6.245761e-02
6.067530e-02
5.830355e-02
5.529729e-02
5.160325e-02
4.715930e-02
4.189376e-02
3.572476e-02
2.855971e-02
2.029511e-02
1.081669e-02
0.000000e+00
0.000000e+00
8.232442e-03
1.570198e-02
2.245671e-02
2.854373e-02
3.400743e-02
3.888834e-02
4.322248e-02
4.704111e-02
5.037066e-02
5.323274e-02
5.564424e-02
5.761740e-02
5.915983e-02
6.027448e-02
6.095956e-02
6.120839e-02
6.100917e-02
6.034469e-02
5.919190e-02
5.752149e-02
5.529729e-02
5.247559e-02
4.900436e-02
4.482239e-02
3.985832e-02
3.402977e-02
2.724246e-02
1.938972e-02
1.035249e-02
0.000000e+00
0.000000e+00
7.811512e-03
1.485688e-02
2.119397e-02
2.687818e-02
3.196038e-02
3.648583e-02
4.049377e-02
4.401755e-02
4.708484e-02
4.971797e-02
5.193425e-02
5.374620e-02
5.516169e-02
5.618403e-02
5.681196e-02
5.703953e-02
5.685592e-02
5.624513e-02
5.518560e-02
5.364974e-02
5.160325e-02
4.900436e-02
4.580293e-02
4.193929e-02
3.734306e-02
3.193174e-02
2.560944e-02
1.826583e-02
9.775772e-03
0.000000e+00
0.000000e+00
7.291979e-03
1.381567e-02
1.964219e-02
2.483754e-02
2.946023e-02
3.356056e-02
3.718087e-02
4.035617e-02
4.311491e-02
4.547970e-02
4.746786e-02
4.909187e-02
5.035966e-02
5.127479e-02
5.183647e-02
5.203956e-02
5.187436e-02
5.132636e-02
5.037585e-02
4.899744e-02
4.715930e-02
4.482239e-02
4.193929e-02
3.845292e-02
3.429483e-02
2.938335e-02
2.362151e-02
1.689508e-02
9.071450e-03
0.000000e+00
0.000000e+00
6.655387e-03
1.254329e-02
1.775300e-02
2.236366e-02
2.644214e-02
3.004347e-02
3.321222e-02
3.598414e-02
3.838758e-02
4.044463e-02
4.217204e-02
4.358179e-02
4.468154e-02
4.547490e-02
4.596151e-02
4.613704e-02
4.599309e-02
4.551691e-02
4.469106e-02
4.349287e-02
4.189376e-02
3.985832e-02
3.734306e-02
3.429483e-02
3.064876e-02
2.632564e-02
2.122878e-02
1.524056e-02
8.219591e-03
0.000000e+00
0.000000e+00
5.875807e-03
1.099186e-02
1.546248e-02
1.938212e-02
2.282550e-02
2.585072e-02
2.850271e-02
3.081624e-02
3.281815e-02
3.452894e-02
3.596394e-02
3.713403e-02
3.804623e-02
3.870391e-02
3.910704e-02
3.925214e-02
3.913225e-02
3.873665e-02
3.805060e-02
3.705481e-02
3.572476e-02
3.402977e-02
3.193174e-02
2.938335e-02
2.632564e-02
2.268462e-02
1.836669e-02
1.325295e-02
7.192836e-03
0.000000e+00
0.000000e+00
4.914751e-03
9.093615e-03
1.268451e-02
1.579702e-02
1.851020e-02
2.088122e-02
2.295202e-02
2.475379e-02
2.630990e-02
2.763787e-02
2.875062e-02
2.965726e-02
3.036365e-02
3.087270e-02
3.118455e-02
3.129659e-02
3.120341e-02
3.089665e-02
3.036468e-02
2.959222e-02
2.855971e-02
2.724246e-02
2.560944e-02
2.362151e-02
2.122878e-02
1.836669e-02
1.495003e-02
1.086393e-02
5.951474e-03
0.000000e+00
0.000000e+00
3.710266e-03
6.748261e-03
9.300934e-03
1.148444e-02
1.337257e-02
1.501426e-02
1.644332e-02
1.768391e-02
1.875366e-02
1.966555e-02
2.042902e-02
2.105070e-02
2.153484e-02
2.188361e-02
2.209717e-02
2.217378e-02
2.210975e-02
2.189928e-02
2.153430e-02
2.100416e-02
2.029511e-02
1.938972e-02
1.826583e-02
1.689508e-02
1.524056e-02
1.325295e-02
1.086393e-02
7.974350e-03
4.432901e-03
0.000000e+00
0.000000e+00
2.150475e-03
3.800213e-03
5.147735e-03
6.285166e-03
7.261994e-03
8.108014e-03
8.842696e-03
9.479491e-03
1.002801e-02
1.049524e-02
1.088621e-02
1.120445e-02
1.145221e-02
1.163065e-02
1.173988e-02
1.177903e-02
1.174621e-02
1.163843e-02
1.145153e-02
1.117999e-02
1.081669e-02
1.035249e-02
9.775772e-03
9.071450e-03
8.219591e-03
7.192836e-03
5.951474e-03
4.432901e-03
2.526009e-03
0.000000e+00
0.000000e+00
0.000000e+00
0.000000e+00
0.000000e+00
0.000000e+00
0.000000e+00
0.000000e+00
0.000000e+00
0.000000e+00
0.000000e+00
0.000000e+00
0.000000e+00
0.000000e+00
0.000000e+00
0.000000e+00
0.000000e+00
0.000000e+00
0.000000e+00
0.000000e+00
0.000000e+00
0.000000e+00
0.000000e+00
0.000000e+00
0.000000e+00
0.000000e+00
0.000000e+00
0.000000e+00
0.000000e+00
0.000000e+00
0.000000e+00
0.000000e+00
