# vtk DataFile Version 3.0
vtk output
ASCII
DATASET UNSTRUCTURED_GRID
POINTS 961 float
0.000000e+00 0.000000e+00 0.000000e+00
3.333333e-02 0.000000e+00 0.000000e+00
6.666667e-02 0.000000e+00 0.000000e+00
1.000000e-01 0.000000e+00 0.000000e+00
1.333333e-01 0.000000e+00 0.000000e+00
1.666667e-01 0.000000e+00 0.000000e+00
2.000000e-01 0.000000e+00 0.000000e+00
2.333333e-01 0.000000e+00 0.000000e+00
2.666667e-01 0.000000e+00 0.000000e+00
3.000000e-01 0.000000e+00 0.000000e+00
3.333333e-01 0.000000e+00 0.000000e+00
3.666667e-01 0.000000e+00 0.000000e+00
4.000000e-01 0.000000e+00 0.000000e+00
4.333333e-01 0.000000e+00 0.000000e+00
4.666667e-01 0.000000e+00 0.000000e+00
5.000000e-01 0.000000e+00 0.000000e+00
5.333333e-01 0.000000e+00 0.000000e+00
5.666667e-01 0.000000e+00 0.000000e+00
6.000000e-01 0.000000e+00 0.000000e+00
6.333333e-01 0.000000e+00 0.000000e+00
6.666667e-01 0.000000e+00 0.000000e+00
7.000000e-01 0.000000e+00 0.000000e+00
7.333333e-01 0.000000e+00 0.000000e+00
7.666667e-01 0.000000e+00 0.000000e+00
8.000000e-01 0.000000e+00 0.000000e+00
8.333333e-01 0.000000e+00 0.000000e+00
8.666667e-01 0.000000e+00 0.000000e+00
9.000000e-01 0.000000e+00 0.000000e+00
9.333333e-01 0.000000e+00 0.000000e+00
9.666667e-01 0.000000e+00 0.000000e+00
1.000000e+00 0.000000e+00 0.000000e+00
0.000000e+00 3.333333e-02 0.000000e+00
3.333333e-02 3.333333e-02 0.000000e+00
6.666667e-02 3.333333e-02 0.000000e+00
1.000000e-01 3.333333e-02 0.000000e+00
1.333333e-01 3.333333e-02 0.000000e+00
1.666667e-01 3.333333e-02 0.000000e+00
2.000000e-01 3.333333e-02 0.000000e+00
2.333333e-01 3.333333e-02 0.000000e+00
2.666667e-01 3.333333e-02 0.000000e+00
3.000000e-01 3.333333e-02 0.000000e+00
3.333333e-01 3.333333e-02 0.000000e+00
3.666667e-01 3.333333e-02 0.000000e+00
4.000000e-01 3.333333e-02 0.000000e+00
4.333333e-01 3.333333e-02 0.000000e+00
4.666667e-01 3.333333e-02 0.000000e+00
5.000000e-01 3.333333e-02 0.000000e+00
5.333333e-01 3.333333e-02 0.000000e+00
5.666667e-01 3.333333e-02 0.000000e+00
6.000000e-01 3.333333e-02 0.000000e+00
6.333333e-01 3.333333e-02 0.000000e+00
6.666667e-01 3.333333e-02 0.000000e+00
7.000000e-01 3.333333e-02 0.000000e+00
7.333333e-01 3.333333e-02 0.000000e+00
7.666667e-01 3.333333e-02 0.000000e+00
8.000000e-01 3.333333e-02 0.000000e+00
8.333333e-01 3.333333e-02 0.000000e+00
8.666667e-01 3.333333e-02 0.000000e+00
9.000000e-01 3.333333e-02 0.000000e+00
9.333333e-01 3.333333e-02 0.000000e+00
9.666667e-01 3.333333e-02 0.000000e+00
1.000000e+00 3.333333e-02 0.000000e+00
0.000000e+00 6.666667e-02 0.000000e+00
3.333333e-02 6.666667e-02 0.000000e+00
6.666667e-02 6.666667e-02 0.000000e+00
1.000000e-01 6.666667e-02 0.000000e+00
1.333333e-01 6.666667e-02 0.000000e+00
1.666667e-01 6.666667e-02 0.000000e+00
2.000000e-01 6.666667e-02 0.000000e+00
2.333333e-01 6.666667e-02 0.000000e+00
2.666667e-01 6.666667e-02 0.000000e+00
3.000000e-01 6.666667e-02 0.000000e+00
3.333333e-01 6.666667e-02 0.000000e+00
3.666667e-01 6.666667e-02 0.000000e+00
4.000000e-01 6.666667e-02 0.000000e+00
4.333333e-01 6.666667e-02 0.000000e+00
4.666667e-01 6.666667e-02 0.000000e+00
5.000000e-01 6.666667e-02 0.000000e+00
5.333333e-01 6.666667e-02 0.000000e+00
5.666667e-01 6.666667e-02 0.000000e+00
6.000000e-01 6.666667e-02 0.000000e+00
6.333333e-01 6.666667e-02 0.000000e+00
6.666667e-01 6.666667e-02 0.000000e+00
7.000000e-01 6.666667e-02 0.000000e+00
7.333333e-01 6.666667e-02 0.000000e+00
7.666667e-01 6.666667e-02 0.000000e+00
8.000000e-01 6.666667e-02 0.000000e+00
8.333333e-01 6.666667e-02 0.000000e+00
8.666667e-01 6.666667e-02 0.000000e+00
9.000000e-01 6.666667e-02 0.000000e+00
9.333333e-01 6.666667e-02 0.000000e+00
9.666667e-01 6.666667e-02 0.000000e+00
1.000000e+00 6.666667e-02 0.000000e+00
0.000000e+00 1.000000e-01 0.000000e+00
3.333333e-02 1.000000e-01 0.000000e+00
6.666667e-02 1.000000e-01 0.000000e+00
1.000000e-01 1.000000e-01 0.000000e+00
1.333333e-01 1.000000e-01 0.000000e+00
1.666667e-01 1.000000e-01 0.000000e+00
2.000000e-01 1.000000e-01 0.000000e+00
2.333333e-01 1.000000e-01 0.000000e+00
2.666667e-01 1.000000e-01 0.000000e+00
3.000000e-01 1.000000e-01 0.000000e+00
3.333333e-01 1.000000e-01 0.000000e+00
3.666667e-01 1.000000e-01 0.000000e+00
4.000000e-01 1.000000e-01 0.000000e+00
4.333333e-01 1.000000e-01 0.000000e+00
4.666667e-01 1.000000e-01 0.000000e+00
5.000000e-01 1.000000e-01 0.000000e+00
5.333333e-01 1.000000e-01 0.000000e+00
5.666667e-01 1.000000e-01 0.000000e+00
6.000000e-01 1.000000e-01 0.000000e+00
6.333333e-01 1.000000e-01 0.000000e+00
6.666667e-01 1.000000e-01 0.000000e+00
7.000000e-01 1.000000e-01 0.000000e+00
7.333333e-01 1.000000e-01 0.000000e+00
7.666667e-01 1.000000e-01 0.000000e+00
8.000000e-01 1.000000e-01 0.000000e+00
8.333333e-01 1.000000e-01 0.000000e+00
8.666667e-01 1.000000e-01 0.000000e+00
9.000000e-01 1.000000e-01 0.000000e+00
9.333333e-01 1.000000e-01 0.000000e+00
9.666667e-01 1.000000e-01 0.000000e+00
1.000000e+00 1.000000e-01 0.000000e+00
0.000000e+00 1.333333e-01 0.000000e+00
3.333333e-02 1.333333e-01 0.000000e+00
6.666667e-02 1.333333e-01 0.000000e+00
1.000000e-01 1.333333e-01 0.000000e+00
1.333333e-01 1.333333e-01 0.000000e+00
1.666667e-01 1.333333e-01 0.000000e+00
2.000000e-01 1.333333e-01 0.000000e+00
2.333333e-01 1.333333e-01 0.000000e+00
2.666667e-01 1.333333e-01 0.000000e+00
3.000000e-01 1.333333e-01 0.000000e+00
3.333333e-01 1.333333e-01 0.000000e+00
3.666667e-01 1.333333e-01 0.000000e+00
4.000000e-01 1.333333e-01 0.000000e+00
4.333333e-01 1.333333e-01 0.000000e+00
4.666667e-01 1.333333e-01 0.000000e+00
5.000000e-01 1.333333e-01 0.000000e+00
5.333333e-01 1.333333e-01 0.000000e+00
5.666667e-01 1.333333e-01 0.000000e+00
6.000000e-01 1.333333e-01 0.000000e+00
6.333333e-01 1.333333e-01 0.000000e+00
6.666667e-01 1.333333e-01 0.000000e+00
7.000000e-01 1.333333e-01 0.000000e+00
7.333333e-01 1.333333e-01 0.000000e+00
7.666667e-01 1.333333e-01 0.000000e+00
8.000000e-01 1.333333e-01 0.000000e+00
8.333333e-01 1.333333e-01 0.000000e+00
8.666667e-01 1.333333e-01 0.000000e+00
9.000000e-01 1.333333e-01 0.000000e+00
9.333333e-01 1.333333e-01 0.000000e+00
9.666667e-01 1.333333e-01 0.000000e+00
1.000000e+00 1.333333e-01 0.000000e+00
0.000000e+00 1.666667e-01 0.000000e+00
3.333333e-02 1.666667e-01 0.000000e+00
6.666667e-02 1.666667e-01 0.000000e+00
1.000000e-01 1.666667e-01 0.000000e+00
1.333333e-01 1.666667e-01 0.000000e+00
1.666667e-01 1.666667e-01 0.000000e+00
2.000000e-01 1.666667e-01 0.000000e+00
2.333333e-01 1.666667e-01 0.000000e+00
2.666667e-01 1.666667e-01 0.000000e+00
3.000000e-01 1.666667e-01 0.000000e+00
3.333333e-01 1.666667e-01 0.000000e+00
3.666667e-01 1.666667e-01 0.000000e+00
4.000000e-01 1.666667e-01 0.000000e+00
4.333333e-01 1.666667e-01 0.000000e+00
4.666667e-01 1.666667e-01 0.000000e+00
5.000000e-01 1.666667e-01 0.000000e+00
5.333333e-01 1.666667e-01 0.000000e+00
5.666667e-01 1.666667e-01 0.000000e+00
6.000000e-01 1.666667e-01 0.000000e+00
6.333333e-01 1.666667e-01 0.000000e+00
6.666667e-01 1.666667e-01 0.000000e+00
7.000000e-01 1.666667e-01 0.000000e+00
7.333333e-01 1.666667e-01 0.000000e+00
7.666667e-01 1.666667e-01 0.000000e+00
8.000000e-01 1.666667e-01 0.000000e+00
8.333333e-01 1.666667e-01 0.000000e+00
8.666667e-01 1.666667e-01 0.000000e+00
9.000000e-01 1.666667e-01 0.000000e+00
9.333333e-01 1.666667e-01 0.000000e+00
9.666667e-01 1.666667e-01 0.000000e+00
1.000000e+00 1.666667e-01 0.000000e+00
0.000000e+00 2.000000e-01 0.000000e+00
3.333333e-02 2.000000e-01 0.000000e+00
6.666667e-02 2.000000e-01 0.000000e+00
1.000000e-01 2.000000e-01 0.000000e+00
1.333333e-01 2.000000e-01 0.000000e+00
1.666667e-01 2.000000e-01 0.000000e+00
2.000000e-01 2.000000e-01 0.000000e+00
2.333333e-01 2.000000e-01 0.000000e+00
2.666667e-01 2.000000e-01 0.000000e+00
3.000000e-01 2.000000e-01 0.000000e+00
3.333333e-01 2.000000e-01 0.000000e+00
3.666667e-01 2.000000e-01 0.000000e+00
4.000000e-01 2.000000e-01 0.000000e+00
4.333333e-01 2.000000e-01 0.000000e+00
4.666667e-01 2.000000e-01 0.000000e+00
5.000000e-01 2.000000e-01 0.000000e+00
5.333333e-01 2.000000e-01 0.000000e+00
5.666667e-01 2.000000e-01 0.000000e+00
6.000000e-01 2.000000e-01 0.000000e+00
6.333333e-01 2.000000e-01 0.000000e+00
6.666667e-01 2.000000e-01 0.000000e+00
7.000000e-01 2.000000e-01 0.000000e+00
7.333333e-01 2.000000e-01 0.000000e+00
7.666667e-01 2.000000e-01 0.000000e+00
8.000000e-01 2.000000e-01 0.000000e+00
8.333333e-01 2.000000e-01 0.000000e+00
8.666667e-01 2.000000e-01 0.000000e+00
9.000000e-01 2.000000e-01 0.000000e+00
9.333333e-01 2.000000e-01 0.000000e+00
9.666667e-01 2.000000e-01 0.000000e+00
1.000000e+00 2.000000e-01 0.000000e+00
0.000000e+00 2.333333e-01 0.000000e+00
3.333333e-02 2.333333e-01 0.000000e+00
6.666667e-02 2.333333e-01 0.000000e+00
1.000000e-01 2.333333e-01 0.000000e+00
1.333333e-01 2.333333e-01 0.000000e+00
1.666667e-01 2.333333e-01 0.000000e+00
2.000000e-01 2.333333e-01 0.000000e+00
2.333333e-01 2.333333e-01 0.000000e+00
2.666667e-01 2.333333e-01 0.000000e+00
3.000000e-01 2.333333e-01 0.000000e+00
3.333333e-01 2.333333e-01 0.000000e+00
3.666667e-01 2.333333e-01 0.000000e+00
4.000000e-01 2.333333e-01 0.000000e+00
4.333333e-01 2.333333e-01 0.000000e+00
4.666667e-01 2.333333e-01 0.000000e+00
5.000000e-01 2.333333e-01 0.000000e+00
5.333333e-01 2.333333e-01 0.000000e+00
5.666667e-01 2.333333e-01 0.000000e+00
6.000000e-01 2.333333e-01 0.000000e+00
6.333333e-01 2.333333e-01 0.000000e+00
6.666667e-01 2.333333e-01 0.000000e+00
7.000000e-01 2.333333e-01 0.000000e+00
7.333333e-01 2.333333e-01 0.000000e+00
7.666667e-01 2.333333e-01 0.000000e+00
8.000000e-01 2.333333e-01 0.000000e+00
8.333333e-01 2.333333e-01 0.000000e+00
8.666667e-01 2.333333e-01 0.000000e+00
9.000000e-01 2.333333e-01 0.000000e+00
9.333333e-01 2.333333e-01 0.000000e+00
9.666667e-01 2.333333e-01 0.000000e+00
1.000000e+00 2.333333e-01 0.000000e+00
0.000000e+00 2.666667e-01 0.000000e+00
3.333333e-02 2.666667e-01 0.000000e+00
6.666667e-02 2.666667e-01 0.000000e+00
1.000000e-01 2.666667e-01 0.000000e+00
1.333333e-01 2.666667e-01 0.000000e+00
1.666667e-01 2.666667e-01 0.000000e+00
[...]
POINT_DATA 961
SCALARS u float
LOOKUP_TABLE default
0.000000e+00
0.000000e+00
0.000000e+00
0.000000e+00
0.000000e+00
0.000000e+00
0.000000e+00
0.000000e+00
0.000000e+00
0.000000e+00
0.000000e+00
0.000000e+00
0.000000e+00
0.000000e+00
0.000000e+00
0.000000e+00
0.000000e+00
0.000000e+00
0.000000e+00
0.000000e+00
0.000000e+00
0.000000e+00
0.000000e+00
0.000000e+00
0.000000e+00
0.000000e+00
0.000000e+00
0.000000e+00
0.000000e+00
0.000000e+00
0.000000e+00
0.000000e+00
1.868215e-03
3.243151e-03
4.329637e-03
5.222540e-03
5.972665e-03
6.610472e-03
7.155774e-03
7.622200e-03
8.019464e-03
8.354620e-03
8.632797e-03
8.857645e-03
9.031616e-03
9.156135e-03
9.231692e-03
9.257885e-03
9.233413e-03
9.156019e-03
9.022389e-03
8.827985e-03
8.566793e-03
8.230943e-03
7.810140e-03
7.290754e-03
6.654328e-03
5.874932e-03
4.914074e-03
3.709804e-03
2.150238e-03
0.000000e+00
0.000000e+00
3.243151e-03
5.817589e-03
7.922297e-03
9.680617e-03
1.117066e-02
1.244398e-02
1.353605e-02
1.447211e-02
1.527053e-02
1.594482e-02
1.650490e-02
1.695786e-02
1.730849e-02
1.755954e-02
1.771194e-02
1.776486e-02
1.771566e-02
1.755984e-02
1.729079e-02
1.689949e-02
1.637404e-02
1.569895e-02
1.485411e-02
1.381319e-02
1.254115e-02
1.099009e-02
9.092248e-03
6.747325e-03
3.799735e-03
0.000000e+00
0.000000e+00
4.329637e-03
7.922297e-03
1.094018e-02
1.350312e-02
1.569724e-02
1.758458e-02
1.921038e-02
2.060817e-02
2.180301e-02
2.281370e-02
2.365418e-02
2.433452e-02
2.486152e-02
2.523907e-02
2.546844e-02
2.554828e-02
2.547465e-02
2.524085e-02
2.483710e-02
2.425016e-02
2.346265e-02
2.245213e-02
2.118978e-02
1.963845e-02
1.774977e-02
1.545980e-02
1.268244e-02
9.299521e-03
5.147013e-03
0.000000e+00
0.000000e+00
5.222540e-03
9.680617e-03
1.350312e-02
1.679624e-02
1.964362e-02
2.210995e-02
2.424506e-02
2.608732e-02
2.766625e-02
2.900447e-02
3.011897e-02
3.102216e-02
3.172239e-02
3.222445e-02
3.252973e-02
3.263636e-02
3.253908e-02
3.222911e-02
3.169376e-02
3.091592e-02
2.987336e-02
2.853760e-02
2.687257e-02
2.483253e-02
2.235933e-02
1.937854e-02
1.579426e-02
1.148255e-02
6.284200e-03
0.000000e+00
0.000000e+00
5.972665e-03
1.117066e-02
1.569724e-02
1.964362e-02
2.308648e-02
2.608862e-02
2.870063e-02
3.096290e-02
3.290736e-02
3.455899e-02
3.593684e-02
3.705489e-02
3.792260e-02
3.854531e-02
3.892438e-02
3.905730e-02
3.893758e-02
3.855450e-02
3.789273e-02
3.693181e-02
3.564530e-02
3.399977e-02
3.195338e-02
2.945397e-02
2.643673e-02
2.282103e-02
1.850675e-02
1.337021e-02
7.260787e-03
0.000000e+00
0.000000e+00
6.610472e-03
1.244398e-02
1.758458e-02
2.210995e-02
2.608862e-02
2.957917e-02
3.263060e-02
3.528329e-02
3.756995e-02
3.951664e-02
4.114352e-02
4.246548e-02
4.349260e-02
4.423044e-02
4.468016e-02
4.483856e-02
4.469794e-02
4.424584e-02
4.346464e-02
4.233097e-02
4.081495e-02
3.887919e-02
3.647746e-02
3.355309e-02
3.003701e-02
2.584537e-02
2.087709e-02
1.501144e-02
8.106572e-03
0.000000e+00
0.000000e+00
7.155774e-03
1.353605e-02
1.921038e-02
2.424506e-02
2.870063e-02
3.263060e-02
3.608115e-02
3.909128e-02
4.169332e-02
4.391344e-02
4.577211e-02
4.728456e-02
4.846104e-02
4.930705e-02
4.982338e-02
5.000610e-02
4.984637e-02
4.933019e-02
4.843795e-02
4.714389e-02
4.541536e-02
4.321189e-02
4.048409e-02
3.717223e-02
3.320474e-02
2.849652e-02
2.294725e-02
1.644006e-02
8.841027e-03
0.000000e+00
0.000000e+00
7.622200e-03
1.447211e-02
2.060817e-02
2.608732e-02
3.096290e-02
3.528329e-02
3.909128e-02
4.242380e-02
4.531201e-02
4.778148e-02
4.985242e-02
5.153992e-02
5.285407e-02
5.380006e-02
5.437819e-02
5.458375e-02
5.440688e-02
5.383219e-02
5.283842e-02
5.139786e-02
4.947570e-02
4.702917e-02
4.400662e-02
4.034641e-02
3.597570e-02
3.080926e-02
2.474840e-02
1.768022e-02
9.477607e-03
0.000000e+00
0.000000e+00
8.019464e-03
1.527053e-02
2.180301e-02
2.766625e-02
3.290736e-02
3.756995e-02
4.169332e-02
4.531201e-02
4.845557e-02
5.114856e-02
5.341053e-02
5.525607e-02
5.669486e-02
5.773160e-02
5.836603e-02
5.859267e-02
5.840069e-02
5.777355e-02
5.668860e-02
5.511658e-02
5.302100e-02
5.035744e-02
4.707274e-02
4.310411e-02
3.837823e-02
3.281043e-02
2.630393e-02
1.874958e-02
1.002593e-02
0.000000e+00
0.000000e+00
8.354620e-03
1.594482e-02
2.281370e-02
2.900447e-02
3.455899e-02
3.951664e-02
4.391344e-02
4.778148e-02
5.114856e-02
5.403800e-02
5.646842e-02
5.845375e-02
6.000306e-02
6.112050e-02
6.180515e-02
6.205083e-02
6.184584e-02
6.117263e-02
6.000745e-02
5.831980e-02
5.607197e-02
5.321835e-02
4.970481e-02
4.546795e-02
4.043447e-02
3.452054e-02
2.763138e-02
1.966111e-02
1.049297e-02
0.000000e+00
0.000000e+00
8.632797e-03
1.650490e-02
2.365418e-02
3.011897e-02
3.593684e-02
4.114352e-02
4.577211e-02
4.985242e-02
5.341053e-02
5.646842e-02
5.904375e-02
6.114963e-02
6.279449e-02
6.398185e-02
6.471018e-02
6.497260e-02
6.475667e-02
6.404403e-02
6.281000e-02
6.102317e-02
5.864491e-02
5.562881e-02
5.192014e-02
4.745526e-02
4.216114e-02
3.595492e-02
2.874366e-02
2.042426e-02
1.088378e-02
0.000000e+00
0.000000e+00
8.857645e-03
1.695786e-02
2.433452e-02
3.102216e-02
3.705489e-02
4.246548e-02
4.728456e-02
5.153992e-02
5.525607e-02
5.845375e-02
6.114963e-02
6.335605e-02
6.508077e-02
6.632671e-02
6.709174e-02
6.736839e-02
6.714358e-02
6.639828e-02
6.510712e-02
6.323800e-02
6.075164e-02
5.760108e-02
5.373126e-02
4.907853e-02
4.357025e-02
3.712450e-02
2.964989e-02
2.104566e-02
1.120188e-02
0.000000e+00
0.000000e+00
9.031616e-03
1.730849e-02
2.486152e-02
3.172239e-02
3.792260e-02
4.349260e-02
4.846104e-02
5.285407e-02
5.669486e-02
6.000306e-02
6.279449e-02
6.508077e-02
6.686905e-02
6.816171e-02
6.895611e-02
6.924428e-02
6.901262e-02
6.824159e-02
6.690528e-02
6.497112e-02
6.239937e-02
5.914277e-02
5.514607e-02
5.034572e-02
4.466949e-02
3.803626e-02
3.035595e-02
2.152958e-02
1.144952e-02
0.000000e+00
0.000000e+00
9.156135e-03
1.755954e-02
2.523907e-02
3.222445e-02
3.854531e-02
4.423044e-02
4.930705e-02
5.380006e-02
5.773160e-02
6.112050e-02
6.398185e-02
6.632671e-02
6.816171e-02
6.948880e-02
7.030492e-02
7.060172e-02
7.036521e-02
6.957548e-02
6.820627e-02
6.622467e-02
6.359068e-02
6.025684e-02
5.616789e-02
5.126038e-02
4.546244e-02
3.869361e-02
3.086475e-02
2.187817e-02
1.162787e-02
0.000000e+00
0.000000e+00
9.231692e-03
1.771194e-02
2.546844e-02
3.252973e-02
3.892438e-02
4.468016e-02
4.982338e-02
5.437819e-02
5.836603e-02
6.180515e-02
6.471018e-02
6.709174e-02
6.895611e-02
7.030492e-02
7.113483e-02
7.143721e-02
7.119785e-02
7.039658e-02
6.900696e-02
6.699590e-02
6.432326e-02
6.094154e-02
5.679547e-02
5.182175e-02
4.594878e-02
3.909651e-02
3.117642e-02
2.209161e-02
1.173704e-02
0.000000e+00
0.000000e+00
9.257885e-03
1.776486e-02
2.554828e-02
3.263636e-02
3.905730e-02
4.483856e-02
5.000610e-02
5.458375e-02
5.859267e-02
6.205083e-02
6.497260e-02
6.736839e-02
6.924428e-02
7.060172e-02
7.143721e-02
7.174201e-02
7.150180e-02
7.069632e-02
6.929908e-02
6.727695e-02
6.458981e-02
6.119018e-02
5.702286e-02
5.202468e-02
4.612417e-02
3.924150e-02
3.128837e-02
2.216816e-02
1.177616e-02
0.000000e+00
0.000000e+00
9.233413e-03
1.771566e-02
2.547465e-02
3.253908e-02
3.893758e-02
4.469794e-02
4.984637e-02
5.440688e-02
5.840069e-02
6.184584e-02
6.475667e-02
6.714358e-02
6.901262e-02
7.036521e-02
7.119785e-02
7.150180e-02
7.126277e-02
7.046059e-02
6.906886e-02
6.705456e-02
6.437771e-02
6.099096e-02
5.683925e-02
5.185948e-02
4.598023e-02
3.912161e-02
3.119520e-02
2.210413e-02
1.174334e-02
0.000000e+00
0.000000e+00
9.156019e-03
1.755984e-02
2.524085e-02
3.222911e-02
3.855450e-02
4.424584e-02
4.933019e-02
5.383219e-02
5.777355e-02
6.117263e-02
6.404403e-02
6.639828e-02
6.824159e-02
6.957548e-02
7.039658e-02
7.069632e-02
7.046059e-02
6.966945e-02
6.829675e-02
6.630976e-02
6.366877e-02
6.032669e-02
5.622866e-02
5.131165e-02
4.550420e-02
3.872614e-02
3.088853e-02
2.189372e-02
1.163559e-02
0.000000e+00
0.000000e+00
9.022389e-03
1.729079e-02
2.483710e-02
3.169376e-02
3.789273e-02
4.346464e-02
4.843795e-02
5.283842e-02
5.668860e-02
6.000745e-02
6.281000e-02
6.510712e-02
6.690528e-02
6.820627e-02
6.900696e-02
6.929908e-02
6.906886e-02
6.829675e-02
6.695704e-02
6.501747e-02
6.243879e-02
5.917432e-02
5.516952e-02
5.036149e-02
4.467864e-02
3.804034e-02
3.035675e-02
2.152888e-02
1.144876e-02
0.000000e+00
0.000000e+00
8.827985e-03
1.689949e-02
2.425016e-02
3.091592e-02
3.693181e-02
4.233097e-02
4.714389e-02
5.139786e-02
5.511658e-02
5.831980e-02
6.102317e-02
6.323800e-02
6.497112e-02
6.622467e-02
6.699590e-02
6.727695e-02
6.705456e-02
6.630976e-02
6.501747e-02
6.314612e-02
6.065716e-02
5.750456e-02
5.363425e-02
4.898360e-02
4.348090e-02
3.704492e-02
2.958458e-02
2.099893e-02
1.117732e-02
0.000000e+00
0.000000e+00
8.566793e-03
1.637404e-02
2.346265e-02
2.987336e-02
3.564530e-02
4.081495e-02
4.541536e-02
4.947570e-02
5.302100e-02
5.607197e-02
5.864491e-02
6.075164e-02
6.239937e-02
6.359068e-02
6.432326e-02
6.458981e-02
6.437771e-02
6.366877e-02
6.243879e-02
6.065716e-02
5.828633e-02
5.528121e-02
5.158853e-02
4.714616e-02
4.188240e-02
3.571536e-02
2.855245e-02
2.029015e-02
1.081415e-02
0.000000e+00
0.000000e+00
8.230943e-03
1.569895e-02
2.245213e-02
2.853760e-02
3.399977e-02
3.887919e-02
4.321189e-02
4.702917e-02
5.035744e-02
5.321835e-02
5.562881e-02
5.760108e-02
5.914277e-02
6.025684e-02
6.094154e-02
6.119018e-02
6.099096e-02
6.032669e-02
5.917432e-02
5.750456e-02
5.528121e-02
5.246058e-02
4.899062e-02
4.481012e-02
3.984771e-02
3.402100e-02
2.723568e-02
1.938509e-02
1.035013e-02
0.000000e+00
0.000000e+00
7.810140e-03
1.485411e-02
2.118978e-02
2.687257e-02
3.195338e-02
3.647746e-02
4.048409e-02
4.400662e-02
4.707274e-02
4.970481e-02
5.192014e-02
5.373126e-02
5.514607e-02
5.616789e-02
5.679547e-02
5.702286e-02
5.683925e-02
5.622866e-02
5.516952e-02
5.363425e-02
5.158853e-02
4.899062e-02
4.579035e-02
4.192806e-02
3.733335e-02
3.192371e-02
2.560324e-02
1.826159e-02
9.773606e-03
0.000000e+00
0.000000e+00
7.290754e-03
1.381319e-02
1.963845e-02
2.483253e-02
2.945397e-02
3.355309e-02
3.717223e-02
4.034641e-02
4.310411e-02
4.546795e-02
4.745526e-02
4.907853e-02
5.034572e-02
5.126038e-02
5.182175e-02
5.202468e-02
5.185948e-02
5.131165e-02
5.036149e-02
4.898360e-02
4.714616e-02
4.481012e-02
4.192806e-02
3.844289e-02
3.428616e-02
2.937619e-02
2.361597e-02
1.689129e-02
9.069515e-03
0.000000e+00
0.000000e+00
6.654328e-03
1.254115e-02
1.774977e-02
2.235933e-02
2.643673e-02
3.003701e-02
3.320474e-02
3.597570e-02
3.837823e-02
4.043447e-02
4.216114e-02
4.357025e-02
4.466949e-02
4.546244e-02
4.594878e-02
4.612417e-02
4.598023e-02
4.550420e-02
4.467864e-02
4.348090e-02
4.188240e-02
3.984771e-02
3.733335e-02
3.428616e-02
3.064127e-02
2.631945e-02
2.122399e-02
1.523729e-02
8.217918e-03
0.000000e+00
0.000000e+00
5.874932e-03
1.099009e-02
1.545980e-02
1.937854e-02
2.282103e-02
2.584537e-02
2.849652e-02
3.080926e-02
3.281043e-02
3.452054e-02
3.595492e-02
3.712450e-02
3.803626e-02
3.869361e-02
3.909651e-02
3.924150e-02
3.912161e-02
3.872614e-02
3.804034e-02
3.704492e-02
3.571536e-02
3.402100e-02
3.192371e-02
2.937619e-02
2.631945e-02
2.267949e-02
1.836274e-02
1.325025e-02
7.191453e-03
0.000000e+00
0.000000e+00
4.914074e-03
9.092248e-03
1.268244e-02
1.579426e-02
1.850675e-02
2.087709e-02
2.294725e-02
2.474840e-02
2.630393e-02
2.763138e-02
2.874366e-02
2.964989e-02
3.035595e-02
3.086475e-02
3.117642e-02
3.128837e-02
3.119520e-02
3.088853e-02
3.035675e-02
2.958458e-02
2.855245e-02
2.723568e-02
2.560324e-02
2.361597e-02
2.122399e-02
1.836274e-02
1.494697e-02
1.086184e-02
5.950406e-03
0.000000e+00
0.000000e+00
3.709804e-03
6.747325e-03
9.299521e-03
1.148255e-02
1.337021e-02
1.501144e-02
1.644006e-02
1.768022e-02
1.874958e-02
1.966111e-02
2.042426e-02
2.104566e-02
2.152958e-02
2.187817e-02
2.209161e-02
2.216816e-02
2.210413e-02
2.189372e-02
2.152888e-02
2.099893e-02
2.029015e-02
1.938509e-02
1.826159e-02
1.689129e-02
1.523729e-02
1.325025e-02
1.086184e-02
7.972921e-03
4.432170e-03
0.000000e+00
0.000000e+00
2.150238e-03
3.799735e-03
5.147013e-03
6.284200e-03
7.260787e-03
8.106572e-03
8.841027e-03
9.477607e-03
1.002593e-02
1.049297e-02
1.088378e-02
1.120188e-02
1.144952e-02
1.162787e-02
1.173704e-02
1.177616e-02
1.174334e-02
1.163559e-02
1.144876e-02
1.117732e-02
1.081415e-02
1.035013e-02
9.773606e-03
9.069515e-03
8.217918e-03
7.191453e-03
5.950406e-03
4.432170e-03
2.525635e-03
0.000000e+00
0.000000e+00
0.000000e+00
0.000000e+00
0.000000e+00
0.000000e+00
0.000000e+00
0.000000e+00
0.000000e+00
0.000000e+00
0.000000e+00
0.000000e+00
0.000000e+00
0.000000e+00
0.000000e+00
0.000000e+00
0.000000e+00
0.000000e+00
0.000000e+00
0.000000e+00
0.000000e+00
0.000000e+00
0.000000e+00
0.000000e+00
0.000000e+00
0.000000e+00
0.000000e+00
0.000000e+00
0.000000e+00
0.000000e+00
0.000000e+00
0.000000e+00
