# vtk DataFile Version 3.0
vtk output
ASCII
DATASET UNSTRUCTURED_GRID
POINTS 961 float
0.000000e+00 0.000000e+00 0.000000e+00
3.333333e-02 0.000000e+00 0.000000e+00
6.666667e-02 0.000000e+00 0.000000e+00
1.000000e-01 0.000000e+00 0.000000e+00
1.333333e-01 0.000000e+00 0.000000e+00
1.666667e-01 0.000000e+00 0.000000e+00
2.000000e-01 0.000000e+00 0.000000e+00
2.333333e-01 0.000000e+00 0.000000e+00
2.666667e-01 0.000000e+00 0.000000e+00
3.000000e-01 0.000000e+00 0.000000e+00
3.333333e-01 0.000000e+00 0.000000e+00
3.666667e-01 0.000000e+00 0.000000e+00
4.000000e-01 0.000000e+00 0.000000e+00
4.333333e-01 0.000000e+00 0.000000e+00
4.666667e-01 0.000000e+00 0.000000e+00
5.000000e-01 0.000000e+00 0.000000e+00
5.333333e-01 0.000000e+00 0.000000e+00
5.666667e-01 0.000000e+00 0.000000e+00
6.000000e-01 0.000000e+00 0.000000e+00
6.333333e-01 0.000000e+00 0.000000e+00
6.666667e-01 0.000000e+00 0.000000e+00
7.000000e-01 0.000000e+00 0.000000e+00
7.333333e-01 0.000000e+00 0.000000e+00
7.666667e-01 0.000000e+00 0.000000e+00
8.000000e-01 0.000000e+00 0.000000e+00
8.333333e-01 0.000000e+00 0.000000e+00
8.666667e-01 0.000000e+00 0.000000e+00
9.000000e-01 0.000000e+00 0.000000e+00
9.333333e-01 0.000000e+00 0.000000e+00
9.666667e-01 0.000000e+00 0.000000e+00
1.000000e+00 0.000000e+00 0.000000e+00
0.000000e+00 3.333333e-02 0.000000e+00
3.333333e-02 3.333333e-02 0.000000e+00
6.666667e-02 3.333333e-02 0.000000e+00
1.000000e-01 3.333333e-02 0.000000e+00
1.333333e-01 3.333333e-02 0.000000e+00
1.666667e-01 3.333333e-02 0.000000e+00
2.000000e-01 3.333333e-02 0.000000e+00
2.333333e-01 3.333333e-02 0.000000e+00
2.666667e-01 3.333333e-02 0.000000e+00
3.000000e-01 3.333333e-02 0.000000e+00
3.333333e-01 3.333333e-02 0.000000e+00
3.666667e-01 3.333333e-02 0.000000e+00
4.000000e-01 3.333333e-02 0.000000e+00
4.333333e-01 3.333333e-02 0.000000e+00
4.666667e-01 3.333333e-02 0.000000e+00
5.000000e-01 3.333333e-02 0.000000e+00
5.333333e-01 3.333333e-02 0.000000e+00
5.666667e-01 3.333333e-02 0.000000e+00
6.000000e-01 3.333333e-02 0.000000e+00
6.333333e-01 3.333333e-02 0.000000e+00
6.666667e-01 3.333333e-02 0.000000e+00
7.000000e-01 3.333333e-02 0.000000e+00
7.333333e-01 3.333333e-02 0.000000e+00
7.666667e-01 3.333333e-02 0.000000e+00
8.000000e-01 3.333333e-02 0.000000e+00
8.333333e-01 3.333333e-02 0.000000e+00
8.666667e-01 3.333333e-02 0.000000e+00
9.000000e-01 3.333333e-02 0.000000e+00
9.333333e-01 3.333333e-02 0.000000e+00
9.666667e-01 3.333333e-02 0.000000e+00
1.000000e+00 3.333333e-02 0.000000e+00
0.000000e+00 6.666667e-02 0.000000e+00
3.333333e-02 6.666667e-02 0.000000e+00
6.666667e-02 6.666667e-02 0.000000e+00
1.000000e-01 6.666667e-02 0.000000e+00
1.333333e-01 6.666667e-02 0.000000e+00
1.666667e-01 6.666667e-02 0.000000e+00
2.000000e-01 6.666667e-02 0.000000e+00
2.333333e-01 6.666667e-02 0.000000e+00
2.666667e-01 6.666667e-02 0.000000e+00
3.000000e-01 6.666667e-02 0.000000e+00
3.333333e-01 6.666667e-02 0.000000e+00
3.666667e-01 6.666667e-02 0.000000e+00
4.000000e-01 6.666667e-02 0.000000e+00
4.333333e-01 6.666667e-02 0.000000e+00
4.666667e-01 6.666667e-02 0.000000e+00
5.000000e-01 6.666667e-02 0.000000e+00
5.333333e-01 6.666667e-02 0.000000e+00
5.666667e-01 6.666667e-02 0.000000e+00
6.000000e-01 6.666667e-02 0.000000e+00
6.333333e-01 6.666667e-02 0.000000e+00
6.666667e-01 6.666667e-02 0.000000e+00
7.000000e-01 6.666667e-02 0.000000e+00
7.333333e-01 6.666667e-02 0.000000e+00
7.666667e-01 6.666667e-02 0.000000e+00
8.000000e-01 6.666667e-02 0.000000e+00
8.333333e-01 6.666667e-02 0.000000e+00
8.666667e-01 6.666667e-02 0.000000e+00
9.000000e-01 6.666667e-02 0.000000e+00
9.333333e-01 6.666667e-02 0.000000e+00
9.666667e-01 6.666667e-02 0.000000e+00
1.000000e+00 6.666667e-02 0.000000e+00
0.000000e+00 1.000000e-01 0.000000e+00
3.333333e-02 1.000000e-01 0.000000e+00
6.666667e-02 1.000000e-01 0.000000e+00
1.000000e-01 1.000000e-01 0.000000e+00
1.333333e-01 1.000000e-01 0.000000e+00
1.666667e-01 1.000000e-01 0.000000e+00
2.000000e-01 1.000000e-01 0.000000e+00
2.333333e-01 1.000000e-01 0.000000e+00
2.666667e-01 1.000000e-01 0.000000e+00
3.000000e-01 1.000000e-01 0.000000e+00
3.333333e-01 1.000000e-01 0.000000e+00
3.666667e-01 1.000000e-01 0.000000e+00
4.000000e-01 1.000000e-01 0.000000e+00
4.333333e-01 1.000000e-01 0.000000e+00
4.666667e-01 1.000000e-01 0.000000e+00
5.000000e-01 1.000000e-01 0.000000e+00
5.333333e-01 1.000000e-01 0.000000e+00
5.666667e-01 1.000000e-01 0.000000e+00
6.000000e-01 1.000000e-01 0.000000e+00
6.333333e-01 1.000000e-01 0.000000e+00
6.666667e-01 1.000000e-01 0.000000e+00
7.000000e-01 1.000000e-01 0.000000e+00
7.333333e-01 1.000000e-01 0.000000e+00
7.666667e-01 1.000000e-01 0.000000e+00
8.000000e-01 1.000000e-01 0.000000e+00
8.333333e-01 1.000000e-01 0.000000e+00
8.666667e-01 1.000000e-01 0.000000e+00
9.000000e-01 1.000000e-01 0.000000e+00
9.333333e-01 1.000000e-01 0.000000e+00
9.666667e-01 1.000000e-01 0.000000e+00
1.000000e+00 1.000000e-01 0.000000e+00
0.000000e+00 1.333333e-01 0.000000e+00
3.333333e-02 1.333333e-01 0.000000e+00
6.666667e-02 1.333333e-01 0.000000e+00
1.000000e-01 1.333333e-01 0.000000e+00
1.333333e-01 1.333333e-01 0.000000e+00
1.666667e-01 1.333333e-01 0.000000e+00
2.000000e-01 1.333333e-01 0.000000e+00
2.333333e-01 1.333333e-01 0.000000e+00
2.666667e-01 1.333333e-01 0.000000e+00
3.000000e-01 1.333333e-01 0.000000e+00
3.333333e-01 1.333333e-01 0.000000e+00
3.666667e-01 1.333333e-01 0.000000e+00
4.000000e-01 1.333333e-01 0.000000e+00
4.333333e-01 1.333333e-01 0.000000e+00
4.666667e-01 1.333333e-01 0.000000e+00
5.000000e-01 1.333333e-01 0.000000e+00
5.333333e-01 1.333333e-01 0.000000e+00
5.666667e-01 1.333333e-01 0.000000e+00
6.000000e-01 1.333333e-01 0.000000e+00
6.333333e-01 1.333333e-01 0.000000e+00
6.666667e-01 1.333333e-01 0.000000e+00
7.000000e-01 1.333333e-01 0.000000e+00
7.333333e-01 1.333333e-01 0.000000e+00
7.666667e-01 1.333333e-01 0.000000e+00
8.000000e-01 1.333333e-01 0.000000e+00
8.333333e-01 1.333333e-01 0.000000e+00
8.666667e-01 1.333333e-01 0.000000e+00
9.000000e-01 1.333333e-01 0.000000e+00
9.333333e-01 1.333333e-01 0.000000e+00
9.666667e-01 1.333333e-01 0.000000e+00
1.000000e+00 1.333333e-01 0.000000e+00
0.000000e+00 1.666667e-01 0.000000e+00
3.333333e-02 1.666667e-01 0.000000e+00
6.666667e-02 1.666667e-01 0.000000e+00
1.000000e-01 1.666667e-01 0.000000e+00
1.333333e-01 1.666667e-01 0.000000e+00
1.666667e-01 1.666667e-01 0.000000e+00
2.000000e-01 1.666667e-01 0.000000e+00
2.333333e-01 1.666667e-01 0.000000e+00
2.666667e-01 1.666667e-01 0.000000e+00
3.000000e-01 1.666667e-01 0.000000e+00
3.333333e-01 1.666667e-01 0.000000e+00
3.666667e-01 1.666667e-01 0.000000e+00
4.000000e-01 1.666667e-01 0.000000e+00
4.333333e-01 1.666667e-01 0.000000e+00
4.666667e-01 1.666667e-01 0.000000e+00
5.000000e-01 1.666667e-01 0.000000e+00
5.333333e-01 1.666667e-01 0.000000e+00
5.666667e-01 1.666667e-01 0.000000e+00
6.000000e-01 1.666667e-01 0.000000e+00
6.333333e-01 1.666667e-01 0.000000e+00
6.666667e-01 1.666667e-01 0.000000e+00
7.000000e-01 1.666667e-01 0.000000e+00
7.333333e-01 1.666667e-01 0.000000e+00
7.666667e-01 1.666667e-01 0.000000e+00
8.000000e-01 1.666667e-01 0.000000e+00
8.333333e-01 1.666667e-01 0.000000e+00
8.666667e-01 1.666667e-01 0.000000e+00
9.000000e-01 1.666667e-01 0.000000e+00
9.333333e-01 1.666667e-01 0.000000e+00
9.666667e-01 1.666667e-01 0.000000e+00
1.000000e+00 1.666667e-01 0.000000e+00
0.000000e+00 2.000000e-01 0.000000e+00
3.333333e-02 2.000000e-01 0.000000e+00
6.666667e-02 2.000000e-01 0.000000e+00
1.000000e-01 2.000000e-01 0.000000e+00
1.333333e-01 2.000000e-01 0.000000e+00
1.666667e-01 2.000000e-01 0.000000e+00
2.000000e-01 2.000000e-01 0.000000e+00
2.333333e-01 2.000000e-01 0.000000e+00
2.666667e-01 2.000000e-01 0.000000e+00
3.000000e-01 2.000000e-01 0.000000e+00
3.333333e-01 2.000000e-01 0.000000e+00
3.666667e-01 2.000000e-01 0.000000e+00
4.000000e-01 2.000000e-01 0.000000e+00
4.333333e-01 2.000000e-01 0.000000e+00
4.666667e-01 2.000000e-01 0.000000e+00
5.000000e-01 2.000000e-01 0.000000e+00
5.333333e-01 2.000000e-01 0.000000e+00
5.666667e-01 2.000000e-01 0.000000e+00
6.000000e-01 2.000000e-01 0.000000e+00
6.333333e-01 2.000000e-01 0.000000e+00
6.666667e-01 2.000000e-01 0.000000e+00
7.000000e-01 2.000000e-01 0.000000e+00
7.333333e-01 2.000000e-01 0.000000e+00
7.666667e-01 2.000000e-01 0.000000e+00
8.000000e-01 2.000000e-01 0.000000e+00
8.333333e-01 2.000000e-01 0.000000e+00
8.666667e-01 2.000000e-01 0.000000e+00
9.000000e-01 2.000000e-01 0.000000e+00
9.333333e-01 2.000000e-01 0.000000e+00
9.666667e-01 2.000000e-01 0.000000e+00
1.000000e+00 2.000000e-01 0.000000e+00
0.000000e+00 2.333333e-01 0.000000e+00
3.333333e-02 2.333333e-01 0.000000e+00
6.666667e-02 2.333333e-01 0.000000e+00
1.000000e-01 2.333333e-01 0.000000e+00
1.333333e-01 2.333333e-01 0.000000e+00
1.666667e-01 2.333333e-01 0.000000e+00
2.000000e-01 2.333333e-01 0.000000e+00
2.333333e-01 2.333333e-01 0.000000e+00
2.666667e-01 2.333333e-01 0.000000e+00
3.000000e-01 2.333333e-01 0.000000e+00
3.333333e-01 2.333333e-01 0.000000e+00
3.666667e-01 2.333333e-01 0.000000e+00
4.000000e-01 2.333333e-01 0.000000e+00
4.333333e-01 2.333333e-01 0.000000e+00
4.666667e-01 2.333333e-01 0.000000e+00
5.000000e-01 2.333333e-01 0.000000e+00
5.333333e-01 2.333333e-01 0.000000e+00
5.666667e-01 2.333333e-01 0.000000e+00
6.000000e-01 2.333333e-01 0.000000e+00
6.333333e-01 2.333333e-01 0.000000e+00
6.666667e-01 2.333333e-01 0.000000e+00
7.000000e-01 2.333333e-01 0.000000e+00
7.333333e-01 2.333333e-01 0.000000e+00
7.666667e-01 2.333333e-01 0.000000e+00
8.000000e-01 2.333333e-01 0.000000e+00
8.333333e-01 2.333333e-01 0.000000e+00
8.666667e-01 2.333333e-01 0.000000e+00
9.000000e-01 2.333333e-01 0.000000e+00
9.333333e-01 2.333333e-01 0.000000e+00
9.666667e-01 2.333333e-01 0.000000e+00
1.000000e+00 2.333333e-01 0.000000e+00
0.000000e+00 2.666667e-01 0.000000e+00
3.333333e-02 2.666667e-01 0.000000e+00
6.666667e-02 2.666667e-01 0.000000e+00
1.000000e-01 2.666667e-01 0.000000e+00
1.333333e-01 2.666667e-01 0.000000e+00
1.666667e-01 2.666667e-01 0.000000e+00
[...]
POINT_DATA 961
SCALARS u float
LOOKUP_TABLE default
0.000000e+00
0.000000e+00
0.000000e+00
0.000000e+00
0.000000e+00
0.000000e+00
0.000000e+00
0.000000e+00
0.000000e+00
0.000000e+00
0.000000e+00
0.000000e+00
0.000000e+00
0.000000e+00
0.000000e+00
0.000000e+00
0.000000e+00
0.000000e+00
0.000000e+00
0.000000e+00
0.000000e+00
0.000000e+00
0.000000e+00
0.000000e+00
0.000000e+00
0.000000e+00
0.000000e+00
0.000000e+00
0.000000e+00
0.000000e+00
0.000000e+00
0.000000e+00
1.862012e-03
3.230612e-03
4.310696e-03
5.197209e-03
5.941026e-03
6.572685e-03
7.112076e-03
7.572901e-03
7.964949e-03
8.295347e-03
8.569288e-03
8.790490e-03
8.961462e-03
9.083683e-03
9.157692e-03
9.183126e-03
9.158718e-03
9.082236e-03
8.950384e-03
8.758632e-03
8.500962e-03
8.169495e-03
7.753916e-03
7.240562e-03
6.610935e-03
5.839055e-03
4.886370e-03
3.690858e-03
2.140556e-03
0.000000e+00
0.000000e+00
3.230612e-03
5.792239e-03
7.884008e-03
9.629408e-03
1.110670e-02
1.236759e-02
1.344771e-02
1.437245e-02
1.516032e-02
1.582499e-02
1.637651e-02
1.682210e-02
1.716666e-02
1.741307e-02
1.756234e-02
1.761372e-02
1.756466e-02
1.741069e-02
1.714523e-02
1.675929e-02
1.624096e-02
1.557473e-02
1.474045e-02
1.371172e-02
1.245343e-02
1.091757e-02
9.036241e-03
6.709024e-03
3.780162e-03
0.000000e+00
0.000000e+00
4.310696e-03
7.884008e-03
1.088234e-02
1.342577e-02
1.560064e-02
1.746920e-02
1.907695e-02
2.045764e-02
2.163655e-02
2.263271e-02
2.346026e-02
2.412947e-02
2.464730e-02
2.501784e-02
2.524248e-02
2.532000e-02
2.524657e-02
2.501555e-02
2.461723e-02
2.403839e-02
2.326163e-02
2.226450e-02
2.101810e-02
1.948518e-02
1.761726e-02
1.535025e-02
1.259785e-02
9.241669e-03
5.117448e-03
0.000000e+00
0.000000e+00
5.197209e-03
9.629408e-03
1.342577e-02
1.669279e-02
1.951441e-02
2.195564e-02
2.406661e-02
2.588599e-02
2.744362e-02
2.876240e-02
2.985961e-02
3.074790e-02
3.143588e-02
3.192855e-02
3.222751e-02
3.233104e-02
3.223402e-02
3.192778e-02
3.139969e-02
3.063268e-02
2.960450e-02
2.828665e-02
2.664295e-02
2.462754e-02
2.218211e-02
1.923202e-02
1.568112e-02
1.140517e-02
6.244657e-03
0.000000e+00
0.000000e+00
5.941026e-03
1.110670e-02
1.560064e-02
1.951441e-02
2.292510e-02
2.589588e-02
2.847774e-02
3.071143e-02
3.262929e-02
3.425664e-02
3.561288e-02
3.671233e-02
3.756474e-02
3.817572e-02
3.854690e-02
3.867595e-02
3.855655e-02
3.817812e-02
3.752543e-02
3.657803e-02
3.530949e-02
3.368632e-02
3.166656e-02
2.919793e-02
2.621538e-02
2.263802e-02
1.836542e-02
1.327357e-02
7.211397e-03
0.000000e+00
0.000000e+00
6.572685e-03
1.236759e-02
1.746920e-02
2.195564e-02
2.589588e-02
2.934898e-02
3.236439e-02
3.498296e-02
3.723784e-02
3.915553e-02
4.075661e-02
4.205635e-02
4.306519e-02
4.378903e-02
4.422931e-02
4.438309e-02
4.424286e-02
4.379631e-02
4.302594e-02
4.190842e-02
4.041387e-02
3.850481e-02
3.613490e-02
3.324729e-02
2.977263e-02
2.562679e-02
2.070831e-02
1.489601e-02
8.047582e-03
0.000000e+00
0.000000e+00
7.112076e-03
1.344771e-02
1.907695e-02
2.406661e-02
2.847774e-02
3.236439e-02
3.577328e-02
3.874395e-02
4.130924e-02
4.349582e-02
4.532465e-02
4.681139e-02
4.796674e-02
4.879656e-02
4.930197e-02
4.947934e-02
4.932006e-02
4.881031e-02
4.793059e-02
4.665521e-02
4.495150e-02
4.277892e-02
4.008792e-02
3.681856e-02
3.289899e-02
2.824373e-02
2.275204e-02
1.630656e-02
8.772806e-03
0.000000e+00
0.000000e+00
7.572901e-03
1.437245e-02
2.045764e-02
2.588599e-02
3.071143e-02
3.498296e-02
3.874395e-02
4.203195e-02
4.487869e-02
4.731032e-02
4.934759e-02
5.100610e-02
5.229640e-02
5.322412e-02
5.378993e-02
5.398945e-02
5.381308e-02
5.324564e-02
5.226601e-02
5.084652e-02
4.895236e-02
4.654068e-02
4.355965e-02
3.994740e-02
3.563074e-02
3.052406e-02
2.452816e-02
1.752961e-02
9.400638e-03
0.000000e+00
0.000000e+00
7.964949e-03
1.516032e-02
2.163655e-02
2.744362e-02
3.262929e-02
3.723784e-02
4.130924e-02
4.487869e-02
4.797640e-02
5.062755e-02
5.285228e-02
5.466575e-02
5.607816e-02
5.709470e-02
5.771550e-02
5.793546e-02
5.774404e-02
5.712492e-02
5.605559e-02
5.450687e-02
5.244226e-02
4.981724e-02
4.657846e-02
4.266286e-02
3.799676e-02
3.249503e-02
2.606039e-02
1.858303e-02
9.940813e-03
0.000000e+00
0.000000e+00
8.295347e-03
1.582499e-02
2.263271e-02
2.876240e-02
3.425664e-02
3.915553e-02
4.349582e-02
4.731032e-02
5.062755e-02
5.347147e-02
5.586141e-02
5.781186e-02
5.933249e-02
6.042795e-02
6.109779e-02
6.133621e-02
6.113182e-02
6.046733e-02
5.931914e-02
5.765683e-02
5.544268e-02
5.263096e-02
4.916734e-02
4.498815e-02
4.001967e-02
3.417759e-02
2.736656e-02
1.948001e-02
1.040042e-02
0.000000e+00
0.000000e+00
8.569288e-03
1.637651e-02
2.346026e-02
2.985961e-02
3.561288e-02
4.075661e-02
4.532465e-02
4.934759e-02
5.285228e-02
5.586141e-02
5.839334e-02
6.046186e-02
6.207598e-02
6.323980e-02
6.395225e-02
6.420688e-02
6.399160e-02
6.328830e-02
6.207247e-02
6.031280e-02
5.797062e-02
5.499942e-02
5.134425e-02
4.694115e-02
4.171669e-02
3.558746e-02
2.845990e-02
2.023021e-02
1.078461e-02
0.000000e+00
0.000000e+00
8.790490e-03
1.682210e-02
2.412947e-02
3.074790e-02
3.671233e-02
4.205635e-02
4.681139e-02
5.100610e-02
5.466575e-02
5.781186e-02
6.046186e-02
6.262876e-02
6.432098e-02
6.554201e-02
6.629025e-02
6.655867e-02
6.633455e-02
6.559912e-02
6.432721e-02
6.248680e-02
6.003859e-02
5.693551e-02
5.312227e-02
4.853488e-02
4.310026e-02
3.673592e-02
2.934983e-02
2.084046e-02
1.109701e-02
0.000000e+00
0.000000e+00
8.961462e-03
1.716666e-02
2.464730e-02
3.143588e-02
3.756474e-02
4.306519e-02
4.796674e-02
5.229640e-02
5.607816e-02
5.933249e-02
6.207598e-02
6.432098e-02
6.607530e-02
6.734194e-02
6.811880e-02
6.839836e-02
6.816742e-02
6.740670e-02
6.609051e-02
6.418634e-02
6.165445e-02
5.844745e-02
5.450986e-02
4.977777e-02
4.417848e-02
3.763031e-02
3.004247e-02
2.131520e-02
1.133997e-02
0.000000e+00
0.000000e+00
9.083683e-03
1.741307e-02
2.501784e-02
3.192855e-02
3.817572e-02
4.378903e-02
4.879656e-02
5.322412e-02
5.709470e-02
6.042795e-02
6.323980e-02
6.554201e-02
6.734194e-02
6.864216e-02
6.944016e-02
6.972807e-02
6.949230e-02
6.871321e-02
6.736478e-02
6.541415e-02
6.282133e-02
5.953872e-02
5.551082e-02
5.067380e-02
4.495534e-02
3.827435e-02
3.054099e-02
2.165676e-02
1.151472e-02
0.000000e+00
0.000000e+00
9.157692e-03
1.756234e-02
2.524248e-02
3.222751e-02
3.854690e-02
4.422931e-02
4.930197e-02
5.378993e-02
5.771550e-02
6.109779e-02
6.395225e-02
6.629025e-02
6.811880e-02
6.944016e-02
7.025156e-02
7.054486e-02
7.030625e-02
6.951586e-02
6.814745e-02
6.616803e-02
6.353744e-02
6.020804e-02
5.612433e-02
5.122261e-02
4.543081e-02
3.866827e-02
3.084573e-02
2.186546e-02
1.162147e-02
0.000000e+00
0.000000e+00
9.183126e-03
1.761372e-02
2.532000e-02
3.233104e-02
3.867595e-02
4.438309e-02
4.947934e-02
5.398945e-02
5.793546e-02
6.133621e-02
6.420688e-02
6.655867e-02
6.839836e-02
6.972807e-02
7.054486e-02
7.084049e-02
7.060103e-02
6.980654e-02
6.843073e-02
6.644057e-02
6.379591e-02
6.044914e-02
5.634482e-02
5.141938e-02
4.560088e-02
3.880885e-02
3.095428e-02
2.193969e-02
1.165940e-02
0.000000e+00
0.000000e+00
9.158718e-03
1.756466e-02
2.524657e-02
3.223402e-02
3.855655e-02
4.424286e-02
4.932006e-02
5.381308e-02
5.774404e-02
6.113182e-02
6.399160e-02
6.633455e-02
6.816742e-02
6.949230e-02
7.030625e-02
7.060103e-02
7.036275e-02
6.957156e-02
6.820124e-02
6.621888e-02
6.358447e-02
6.025054e-02
5.616177e-02
5.125468e-02
4.545737e-02
3.868932e-02
3.086139e-02
2.187584e-02
1.162668e-02
0.000000e+00
0.000000e+00
9.082236e-03
1.741069e-02
2.501555e-02
3.192778e-02
3.817812e-02
4.379631e-02
4.881031e-02
5.324564e-02
5.712492e-02
6.046733e-02
6.328830e-02
6.559912e-02
6.740670e-02
6.871321e-02
6.951586e-02
6.980654e-02
6.957156e-02
6.879126e-02
6.743971e-02
6.548427e-02
6.288520e-02
5.959530e-02
5.555944e-02
5.071423e-02
4.498771e-02
3.829912e-02
3.055879e-02
2.166822e-02
1.152035e-02
0.000000e+00
0.000000e+00
8.950384e-03
1.714523e-02
2.461723e-02
3.139969e-02
3.752543e-02
4.302594e-02
4.793059e-02
5.226601e-02
5.605559e-02
5.931914e-02
6.207247e-02
6.432721e-02
6.609051e-02
6.736478e-02
6.814745e-02
6.843073e-02
6.820124e-02
6.743971e-02
6.612064e-02
6.421186e-02
6.167409e-02
5.846055e-02
5.451642e-02
4.977846e-02
4.417460e-02
3.762361e-02
3.003495e-02
2.130881e-02
1.133630e-02
0.000000e+00
0.000000e+00
8.758632e-03
1.675929e-02
2.403839e-02
3.063268e-02
3.657803e-02
4.190842e-02
4.665521e-02
5.084652e-02
5.450687e-02
5.765683e-02
6.031280e-02
6.248680e-02
6.418634e-02
6.541415e-02
6.616803e-02
6.644057e-02
6.621888e-02
6.548427e-02
6.421186e-02
6.237016e-02
5.992061e-02
5.681705e-02
5.300518e-02
4.842203e-02
4.299541e-02
3.664353e-02
2.927462e-02
2.078696e-02
1.106900e-02
0.000000e+00
0.000000e+00
8.500962e-03
1.624096e-02
2.326163e-02
2.960450e-02
3.530949e-02
4.041387e-02
4.495150e-02
4.895236e-02
5.244226e-02
5.544268e-02
5.797062e-02
6.003859e-02
6.165445e-02
6.282133e-02
6.353744e-02
6.379591e-02
6.358447e-02
6.288520e-02
6.167409e-02
5.992061e-02
5.758719e-02
5.462862e-02
5.099142e-02
4.661311e-02
4.142157e-02
3.533435e-02
2.825824e-02
2.008894e-02
1.071133e-02
0.000000e+00
0.000000e+00
8.169495e-03
1.557473e-02
2.226450e-02
2.828665e-02
3.368632e-02
3.850481e-02
4.277892e-02
4.654068e-02
4.981724e-02
5.263096e-02
5.499942e-02
5.693551e-02
5.844745e-02
5.953872e-02
6.020804e-02
6.044914e-02
6.025054e-02
5.959530e-02
5.846055e-02
5.681705e-02
5.462862e-02
5.185144e-02
4.843326e-02
4.431256e-02
3.941756e-02
3.366536e-02
2.696106e-02
1.919728e-02
1.025415e-02
0.000000e+00
0.000000e+00
7.753916e-03
1.474045e-02
2.101810e-02
2.664295e-02
3.166656e-02
3.613490e-02
4.008792e-02
4.355965e-02
4.657846e-02
4.916734e-02
5.134425e-02
5.312227e-02
5.450986e-02
5.551082e-02
5.612433e-02
5.634482e-02
5.616177e-02
5.555944e-02
5.451642e-02
5.300518e-02
5.099142e-02
4.843326e-02
4.528037e-02
4.147280e-02
3.693976e-02
3.159830e-02
2.535196e-02
1.808975e-02
9.685786e-03
0.000000e+00
0.000000e+00
7.240562e-03
1.371172e-02
1.948518e-02
2.462754e-02
2.919793e-02
3.324729e-02
3.681856e-02
3.994740e-02
4.266286e-02
4.498815e-02
4.694115e-02
4.853488e-02
4.977777e-02
5.067380e-02
5.122261e-02
5.141938e-02
5.125468e-02
5.071423e-02
4.977846e-02
4.842203e-02
4.661311e-02
4.431256e-02
4.147280e-02
3.803647e-02
3.393480e-02
2.908569e-02
2.339165e-02
1.673789e-02
8.991117e-03
0.000000e+00
0.000000e+00
6.610935e-03
1.245343e-02
1.761726e-02
2.218211e-02
2.621538e-02
2.977263e-02
3.289899e-02
3.563074e-02
3.799676e-02
4.001967e-02
4.171669e-02
4.310026e-02
4.417848e-02
4.495534e-02
4.543081e-02
4.560088e-02
4.545737e-02
4.498771e-02
4.417460e-02
4.299541e-02
4.142157e-02
3.941756e-02
3.693976e-02
3.393480e-02
3.033750e-02
2.606830e-02
2.103006e-02
1.510466e-02
8.150141e-03
0.000000e+00
0.000000e+00
5.839055e-03
1.091757e-02
1.535025e-02
1.923202e-02
2.263802e-02
2.562679e-02
2.824373e-02
3.052406e-02
3.249503e-02
3.417759e-02
3.558746e-02
3.673592e-02
3.763031e-02
3.827435e-02
3.866827e-02
3.880885e-02
3.868932e-02
3.829912e-02
3.762361e-02
3.664353e-02
3.533435e-02
3.366536e-02
3.159830e-02
2.908569e-02
2.606830e-02
2.247185e-02
1.820240e-02
1.314059e-02
7.135416e-03
0.000000e+00
0.000000e+00
4.886370e-03
9.036241e-03
1.259785e-02
1.568112e-02
1.836542e-02
2.070831e-02
2.275204e-02
2.452816e-02
2.606039e-02
2.736656e-02
2.845990e-02
2.934983e-02
3.004247e-02
3.054099e-02
3.084573e-02
3.095428e-02
3.086139e-02
3.055879e-02
3.003495e-02
2.927462e-02
2.825824e-02
2.696106e-02
2.535196e-02
2.339165e-02
2.103006e-02
1.820240e-02
1.482316e-02
1.077717e-02
5.907134e-03
0.000000e+00
0.000000e+00
3.690858e-03
6.709024e-03
9.241669e-03
1.140517e-02
1.327357e-02
1.489601e-02
1.630656e-02
1.752961e-02
1.858303e-02
1.948001e-02
2.023021e-02
2.084046e-02
2.131520e-02
2.165676e-02
2.186546e-02
2.193969e-02
2.187584e-02
2.166822e-02
2.130881e-02
2.078696e-02
2.008894e-02
1.919728e-02
1.808975e-02
1.673789e-02
1.510466e-02
1.314059e-02
1.077717e-02
7.915014e-03
4.402578e-03
0.000000e+00
0.000000e+00
2.140556e-03
3.780162e-03
5.117448e-03
6.244657e-03
7.211397e-03
8.047582e-03
8.772806e-03
9.400638e-03
9.940813e-03
1.040042e-02
1.078461e-02
1.109701e-02
1.133997e-02
1.151472e-02
1.162147e-02
1.165940e-02
1.162668e-02
1.152035e-02
1.133630e-02
1.106900e-02
1.071133e-02
1.025415e-02
9.685786e-03
8.991117e-03
8.150141e-03
7.135416e-03
5.907134e-03
4.402578e-03
2.510512e-03
0.000000e+00
0.000000e+00
0.000000e+00
0.000000e+00
0.000000e+00
0.000000e+00
0.000000e+00
0.000000e+00
0.000000e+00
0.000000e+00
0.000000e+00
0.000000e+00
0.000000e+00
0.000000e+00
0.000000e+00
0.000000e+00
0.000000e+00
0.000000e+00
0.000000e+00
0.000000e+00
0.000000e+00
0.000000e+00
0.000000e+00
0.000000e+00
0.000000e+00
0.000000e+00
0.000000e+00
0.000000e+00
0.000000e+00
0.000000e+00
0.000000e+00
0.000000e+00
