# vtk DataFile Version 3.0
vtk output
ASCII
DATASET UNSTRUCTURED_GRID
POINTS 961 float
0.000000e+00 0.000000e+00 0.000000e+00
3.333333e-02 0.000000e+00 0.000000e+00
6.666667e-02 0.000000e+00 0.000000e+00
1.000000e-01 0.000000e+00 0.000000e+00
1.333333e-01 0.000000e+00 0.000000e+00
1.666667e-01 0.000000e+00 0.000000e+00
2.000000e-01 0.000000e+00 0.000000e+00
2.333333e-01 0.000000e+00 0.000000e+00
2.666667e-01 0.000000e+00 0.000000e+00
3.000000e-01 0.000000e+00 0.000000e+00
3.333333e-01 0.000000e+00 0.000000e+00
3.666667e-01 0.000000e+00 0.000000e+00
4.000000e-01 0.000000e+00 0.000000e+00
4.333333e-01 0.000000e+00 0.000000e+00
4.666667e-01 0.000000e+00 0.000000e+00
5.000000e-01 0.000000e+00 0.000000e+00
5.333333e-01 0.000000e+00 0.000000e+00
5.666667e-01 0.000000e+00 0.000000e+00
6.000000e-01 0.000000e+00 0.000000e+00
6.333333e-01 0.000000e+00 0.000000e+00
6.666667e-01 0.000000e+00 0.000000e+00
7.000000e-01 0.000000e+00 0.000000e+00
7.333333e-01 0.000000e+00 0.000000e+00
7.666667e-01 0.000000e+00 0.000000e+00
8.000000e-01 0.000000e+00 0.000000e+00
8.333333e-01 0.000000e+00 0.000000e+00
8.666667e-01 0.000000e+00 0.000000e+00
9.000000e-01 0.000000e+00 0.000000e+00
9.333333e-01 0.000000e+00 0.000000e+00
9.666667e-01 0.000000e+00 0.000000e+00
1.000000e+00 0.000000e+00 0.000000e+00
0.000000e+00 3.333333e-02 0.000000e+00
3.333333e-02 3.333333e-02 0.000000e+00
6.666667e-02 3.333333e-02 0.000000e+00
1.000000e-01 3.333333e-02 0.000000e+00
1.333333e-01 3.333333e-02 0.000000e+00
1.666667e-01 3.333333e-02 0.000000e+00
2.000000e-01 3.333333e-02 0.000000e+00
2.333333e-01 3.333333e-02 0.000000e+00
2.666667e-01 3.333333e-02 0.000000e+00
3.000000e-01 3.333333e-02 0.000000e+00
3.333333e-01 3.333333e-02 0.000000e+00
3.666667e-01 3.333333e-02 0.000000e+00
4.000000e-01 3.333333e-02 0.000000e+00
4.333333e-01 3.333333e-02 0.000000e+00
4.666667e-01 3.333333e-02 0.000000e+00
5.000000e-01 3.333333e-02 0.000000e+00
5.333333e-01 3.333333e-02 0.000000e+00
5.666667e-01 3.333333e-02 0.000000e+00
6.000000e-01 3.333333e-02 0.000000e+00
6.333333e-01 3.333333e-02 0.000000e+00
6.666667e-01 3.333333e-02 0.000000e+00
7.000000e-01 3.333333e-02 0.000000e+00
7.333333e-01 3.333333e-02 0.000000e+00
7.666667e-01 3.333333e-02 0.000000e+00
8.000000e-01 3.333333e-02 0.000000e+00
8.333333e-01 3.333333e-02 0.000000e+00
8.666667e-01 3.333333e-02 0.000000e+00
9.000000e-01 3.333333e-02 0.000000e+00
9.333333e-01 3.333333e-02 0.000000e+00
9.666667e-01 3.333333e-02 0.000000e+00
1.000000e+00 3.333333e-02 0.000000e+00
0.000000e+00 6.666667e-02 0.000000e+00
3.333333e-02 6.666667e-02 0.000000e+00
6.666667e-02 6.666667e-02 0.000000e+00
1.000000e-01 6.666667e-02 0.000000e+00
1.333333e-01 6.666667e-02 0.000000e+00
1.666667e-01 6.666667e-02 0.000000e+00
2.000000e-01 6.666667e-02 0.000000e+00
2.333333e-01 6.666667e-02 0.000000e+00
2.666667e-01 6.666667e-02 0.000000e+00
3.000000e-01 6.666667e-02 0.000000e+00
3.333333e-01 6.666667e-02 0.000000e+00
3.666667e-01 6.666667e-02 0.000000e+00
4.000000e-01 6.666667e-02 0.000000e+00
4.333333e-01 6.666667e-02 0.000000e+00
4.666667e-01 6.666667e-02 0.000000e+00
5.000000e-01 6.666667e-02 0.000000e+00
5.333333e-01 6.666667e-02 0.000000e+00
5.666667e-01 6.666667e-02 0.000000e+00
6.000000e-01 6.666667e-02 0.000000e+00
6.333333e-01 6.666667e-02 0.000000e+00
6.666667e-01 6.666667e-02 0.000000e+00
7.000000e-01 6.666667e-02 0.000000e+00
7.333333e-01 6.666667e-02 0.000000e+00
7.666667e-01 6.666667e-02 0.000000e+00
8.000000e-01 6.666667e-02 0.000000e+00
8.333333e-01 6.666667e-02 0.000000e+00
8.666667e-01 6.666667e-02 0.000000e+00
9.000000e-01 6.666667e-02 0.000000e+00
9.333333e-01 6.666667e-02 0.000000e+00
9.666667e-01 6.666667e-02 0.000000e+00
1.000000e+00 6.666667e-02 0.000000e+00
0.000000e+00 1.000000e-01 0.000000e+00
3.333333e-02 1.000000e-01 0.000000e+00
6.666667e-02 1.000000e-01 0.000000e+00
1.000000e-01 1.000000e-01 0.000000e+00
1.333333e-01 1.000000e-01 0.000000e+00
1.666667e-01 1.000000e-01 0.000000e+00
2.000000e-01 1.000000e-01 0.000000e+00
2.333333e-01 1.000000e-01 0.000000e+00
2.666667e-01 1.000000e-01 0.000000e+00
3.000000e-01 1.000000e-01 0.000000e+00
3.333333e-01 1.000000e-01 0.000000e+00
3.666667e-01 1.000000e-01 0.000000e+00
4.000000e-01 1.000000e-01 0.000000e+00
4.333333e-01 1.000000e-01 0.000000e+00
4.666667e-01 1.000000e-01 0.000000e+00
5.000000e-01 1.000000e-01 0.000000e+00
5.333333e-01 1.000000e-01 0.000000e+00
5.666667e-01 1.000000e-01 0.000000e+00
6.000000e-01 1.000000e-01 0.000000e+00
6.333333e-01 1.000000e-01 0.000000e+00
6.666667e-01 1.000000e-01 0.000000e+00
7.000000e-01 1.000000e-01 0.000000e+00
7.333333e-01 1.000000e-01 0.000000e+00
7.666667e-01 1.000000e-01 0.000000e+00
8.000000e-01 1.000000e-01 0.000000e+00
8.333333e-01 1.000000e-01 0.000000e+00
8.666667e-01 1.000000e-01 0.000000e+00
9.000000e-01 1.000000e-01 0.000000e+00
9.333333e-01 1.000000e-01 0.000000e+00
9.666667e-01 1.000000e-01 0.000000e+00
1.000000e+00 1.000000e-01 0.000000e+00
0.000000e+00 1.333333e-01 0.000000e+00
3.333333e-02 1.333333e-01 0.000000e+00
6.666667e-02 1.333333e-01 0.000000e+00
1.000000e-01 1.333333e-01 0.000000e+00
1.333333e-01 1.333333e-01 0.000000e+00
1.666667e-01 1.333333e-01 0.000000e+00
2.000000e-01 1.333333e-01 0.000000e+00
2.333333e-01 1.333333e-01 0.000000e+00
2.666667e-01 1.333333e-01 0.000000e+00
3.000000e-01 1.333333e-01 0.000000e+00
3.333333e-01 1.333333e-01 0.000000e+00
3.666667e-01 1.333333e-01 0.000000e+00
4.000000e-01 1.333333e-01 0.000000e+00
4.333333e-01 1.333333e-01 0.000000e+00
4.666667e-01 1.333333e-01 0.000000e+00
5.000000e-01 1.333333e-01 0.000000e+00
5.333333e-01 1.333333e-01 0.000000e+00
5.666667e-01 1.333333e-01 0.000000e+00
6.000000e-01 1.333333e-01 0.000000e+00
6.333333e-01 1.333333e-01 0.000000e+00
6.666667e-01 1.333333e-01 0.000000e+00
7.000000e-01 1.333333e-01 0.000000e+00
7.333333e-01 1.333333e-01 0.000000e+00
7.666667e-01 1.333333e-01 0.000000e+00
8.000000e-01 1.333333e-01 0.000000e+00
8.333333e-01 1.333333e-01 0.000000e+00
8.666667e-01 1.333333e-01 0.000000e+00
9.000000e-01 1.333333e-01 0.000000e+00
9.333333e-01 1.333333e-01 0.000000e+00
9.666667e-01 1.333333e-01 0.000000e+00
1.000000e+00 1.333333e-01 0.000000e+00
0.000000e+00 1.666667e-01 0.000000e+00
3.333333e-02 1.666667e-01 0.000000e+00
6.666667e-02 1.666667e-01 0.000000e+00
1.000000e-01 1.666667e-01 0.000000e+00
1.333333e-01 1.666667e-01 0.000000e+00
1.666667e-01 1.666667e-01 0.000000e+00
2.000000e-01 1.666667e-01 0.000000e+00
2.333333e-01 1.666667e-01 0.000000e+00
2.666667e-01 1.666667e-01 0.000000e+00
3.000000e-01 1.666667e-01 0.000000e+00
3.333333e-01 1.666667e-01 0.000000e+00
3.666667e-01 1.666667e-01 0.000000e+00
4.000000e-01 1.666667e-01 0.000000e+00
4.333333e-01 1.666667e-01 0.000000e+00
4.666667e-01 1.666667e-01 0.000000e+00
5.000000e-01 1.666667e-01 0.000000e+00
5.333333e-01 1.666667e-01 0.000000e+00
5.666667e-01 1.666667e-01 0.000000e+00
6.000000e-01 1.666667e-01 0.000000e+00
6.333333e-01 1.666667e-01 0.000000e+00
6.666667e-01 1.666667e-01 0.000000e+00
7.000000e-01 1.666667e-01 0.000000e+00
7.333333e-01 1.666667e-01 0.000000e+00
7.666667e-01 1.666667e-01 0.000000e+00
8.000000e-01 1.666667e-01 0.000000e+00
8.333333e-01 1.666667e-01 0.000000e+00
8.666667e-01 1.666667e-01 0.000000e+00
9.000000e-01 1.666667e-01 0.000000e+00
9.333333e-01 1.666667e-01 0.000000e+00
9.666667e-01 1.666667e-01 0.000000e+00
1.000000e+00 1.666667e-01 0.000000e+00
0.000000e+00 2.000000e-01 0.000000e+00
3.333333e-02 2.000000e-01 0.000000e+00
6.666667e-02 2.000000e-01 0.000000e+00
1.000000e-01 2.000000e-01 0.000000e+00
1.333333e-01 2.000000e-01 0.000000e+00
1.666667e-01 2.000000e-01 0.000000e+00
2.000000e-01 2.000000e-01 0.000000e+00
2.333333e-01 2.000000e-01 0.000000e+00
2.666667e-01 2.000000e-01 0.000000e+00
3.000000e-01 2.000000e-01 0.000000e+00
3.333333e-01 2.000000e-01 0.000000e+00
3.666667e-01 2.000000e-01 0.000000e+00
4.000000e-01 2.000000e-01 0.000000e+00
4.333333e-01 2.000000e-01 0.000000e+00
4.666667e-01 2.000000e-01 0.000000e+00
5.000000e-01 2.000000e-01 0.000000e+00
5.333333e-01 2.000000e-01 0.000000e+00
5.666667e-01 2.000000e-01 0.000000e+00
6.000000e-01 2.000000e-01 0.000000e+00
6.333333e-01 2.000000e-01 0.000000e+00
6.666667e-01 2.000000e-01 0.000000e+00
7.000000e-01 2.000000e-01 0.000000e+00
7.333333e-01 2.000000e-01 0.000000e+00
7.666667e-01 2.000000e-01 0.000000e+00
8.000000e-01 2.000000e-01 0.000000e+00
8.333333e-01 2.000000e-01 0.000000e+00
8.666667e-01 2.000000e-01 0.000000e+00
9.000000e-01 2.000000e-01 0.000000e+00
9.333333e-01 2.000000e-01 0.000000e+00
9.666667e-01 2.000000e-01 0.000000e+00
1.000000e+00 2.000000e-01 0.000000e+00
0.000000e+00 2.333333e-01 0.000000e+00
3.333333e-02 2.333333e-01 0.000000e+00
6.666667e-02 2.333333e-01 0.000000e+00
1.000000e-01 2.333333e-01 0.000000e+00
1.333333e-01 2.333333e-01 0.000000e+00
1.666667e-01 2.333333e-01 0.000000e+00
2.000000e-01 2.333333e-01 0.000000e+00
2.333333e-01 2.333333e-01 0.000000e+00
2.666667e-01 2.333333e-01 0.000000e+00
3.000000e-01 2.333333e-01 0.000000e+00
3.333333e-01 2.333333e-01 0.000000e+00
3.666667e-01 2.333333e-01 0.000000e+00
4.000000e-01 2.333333e-01 0.000000e+00
4.333333e-01 2.333333e-01 0.000000e+00
4.666667e-01 2.333333e-01 0.000000e+00
5.000000e-01 2.333333e-01 0.000000e+00
5.333333e-01 2.333333e-01 0.000000e+00
5.666667e-01 2.333333e-01 0.000000e+00
6.000000e-01 2.333333e-01 0.000000e+00
6.333333e-01 2.333333e-01 0.000000e+00
6.666667e-01 2.333333e-01 0.000000e+00
7.000000e-01 2.333333e-01 0.000000e+00
7.333333e-01 2.333333e-01 0.000000e+00
7.666667e-01 2.333333e-01 0.000000e+00
8.000000e-01 2.333333e-01 0.000000e+00
8.333333e-01 2.333333e-01 0.000000e+00
8.666667e-01 2.333333e-01 0.000000e+00
9.000000e-01 2.333333e-01 0.000000e+00
9.333333e-01 2.333333e-01 0.000000e+00
9.666667e-01 2.333333e-01 0.000000e+00
1.000000e+00 2.333333e-01 0.000000e+00
0.000000e+00 2.666667e-01 0.000000e+00
3.333333e-02 2.666667e-01 0.000000e+00
6.666667e-02 2.666667e-01 0.000000e+00
1.000000e-01 2.666667e-01 0.000000e+00
1.333333e-01 2.666667e-01 0.000000e+00
1.666667e-01 2.666667e-01 0.000000e+00
[...]
POINT_DATA 961
SCALARS u float
LOOKUP_TABLE default
0.000000e+00
0.000000e+00
0.000000e+00
0.000000e+00
0.000000e+00
0.000000e+00
0.000000e+00
0.000000e+00
0.000000e+00
0.000000e+00
0.000000e+00
0.000000e+00
0.000000e+00
0.000000e+00
0.000000e+00
0.000000e+00
0.000000e+00
0.000000e+00
0.000000e+00
0.000000e+00
0.000000e+00
0.000000e+00
0.000000e+00
0.000000e+00
0.000000e+00
0.000000e+00
0.000000e+00
0.000000e+00
0.000000e+00
0.000000e+00
0.000000e+00
0.000000e+00
1.626792e-03
2.761292e-03
3.613344e-03
4.281146e-03
4.817897e-03
5.255856e-03
5.616235e-03
5.913776e-03
6.159107e-03
6.360056e-03
6.522435e-03
6.650520e-03
6.747362e-03
6.814976e-03
6.854459e-03
6.866034e-03
6.849057e-03
6.801963e-03
6.722162e-03
6.605860e-03
6.447798e-03
6.240846e-03
5.975391e-03
5.638387e-03
5.211781e-03
4.669763e-03
3.973521e-03
3.060090e-03
1.815442e-03
0.000000e+00
0.000000e+00
2.761292e-03
4.854463e-03
6.488820e-03
7.794766e-03
8.855493e-03
9.726374e-03
1.044582e-02
1.104140e-02
1.153340e-02
1.193694e-02
1.226335e-02
1.252102e-02
1.271595e-02
1.285212e-02
1.293167e-02
1.295505e-02
1.292096e-02
1.282626e-02
1.266582e-02
1.243209e-02
1.211468e-02
1.169955e-02
1.116794e-02
1.049463e-02
9.645276e-03
8.572115e-03
7.206513e-03
5.445842e-03
3.129766e-03
0.000000e+00
0.000000e+00
3.613344e-03
6.488820e-03
8.804022e-03
1.068975e-02
1.224016e-02
1.352333e-02
1.458919e-02
1.547496e-02
1.620873e-02
1.681182e-02
1.730040e-02
1.768654e-02
1.797893e-02
1.818333e-02
1.830286e-02
1.833812e-02
1.828717e-02
1.814537e-02
1.790514e-02
1.755544e-02
1.708108e-02
1.646175e-02
1.567055e-02
1.467183e-02
1.341811e-02
1.184535e-02
9.865782e-03
7.357232e-03
4.148051e-03
0.000000e+00
0.000000e+00
4.281146e-03
7.794766e-03
1.068975e-02
1.308708e-02
1.508147e-02
1.674608e-02
1.813728e-02
1.929868e-02
2.026403e-02
2.105950e-02
2.170519e-02
2.221628e-02
2.260373e-02
2.287486e-02
2.303361e-02
2.308067e-02
2.301347e-02
2.282600e-02
2.250842e-02
2.204651e-02
2.142086e-02
2.060573e-02
1.956738e-02
1.826188e-02
1.663194e-02
1.460258e-02
1.207520e-02
8.919983e-03
4.967156e-03
0.000000e+00
0.000000e+00
4.817897e-03
8.855493e-03
1.224016e-02
1.508147e-02
1.747022e-02
1.948009e-02
2.117025e-02
2.258791e-02
2.377060e-02
2.474794e-02
2.554301e-02
2.617341e-02
2.665197e-02
2.698725e-02
2.718383e-02
2.724246e-02
2.715996e-02
2.692903e-02
2.653786e-02
2.596946e-02
2.520084e-02
2.420172e-02
2.293296e-02
2.134433e-02
1.937169e-02
1.693322e-02
1.392491e-02
1.021526e-02
5.640214e-03
0.000000e+00
0.000000e+00
5.255856e-03
9.726374e-03
1.352333e-02
1.674608e-02
1.948009e-02
2.179729e-02
2.375726e-02
2.540889e-02
2.679185e-02
2.793803e-02
2.887262e-02
2.961501e-02
3.017941e-02
3.057534e-02
3.080785e-02
3.087764e-02
3.078099e-02
3.050947e-02
3.004955e-02
2.938191e-02
2.848059e-02
2.731171e-02
2.583198e-02
2.398664e-02
2.170695e-02
1.890715e-02
1.548095e-02
1.129785e-02
6.199929e-03
0.000000e+00
0.000000e+00
5.616235e-03
1.044582e-02
1.458919e-02
1.813728e-02
2.117025e-02
2.375726e-02
2.595705e-02
2.781882e-02
2.938326e-02
3.068356e-02
3.174628e-02
3.259200e-02
3.323593e-02
3.368825e-02
3.395432e-02
3.403475e-02
3.392527e-02
3.361650e-02
3.309345e-02
3.233490e-02
3.131250e-02
2.998961e-02
2.831985e-02
2.624528e-02
2.369426e-02
2.057892e-02
1.679244e-02
1.220634e-02
6.668152e-03
0.000000e+00
0.000000e+00
5.913776e-03
1.104140e-02
1.547496e-02
1.929868e-02
2.258791e-02
2.540889e-02
2.781882e-02
2.986645e-02
3.159270e-02
3.303137e-02
3.420976e-02
3.514923e-02
3.586559e-02
3.636946e-02
3.666636e-02
3.675673e-02
3.663585e-02
3.629349e-02
3.571348e-02
3.487306e-02
3.374203e-02
3.228165e-02
3.044334e-02
2.816701e-02
2.537925e-02
2.199125e-02
1.789653e-02
1.296885e-02
7.060318e-03
0.000000e+00
0.000000e+00
6.159107e-03
1.153340e-02
1.620873e-02
2.026403e-02
2.377060e-02
2.679185e-02
2.938326e-02
3.159270e-02
3.346084e-02
3.502158e-02
3.630257e-02
3.732554e-02
3.810668e-02
3.865681e-02
3.898150e-02
3.908101e-02
3.895018e-02
3.857809e-02
3.794761e-02
3.703478e-02
3.580798e-02
3.422694e-02
3.224149e-02
2.979019e-02
2.679862e-02
2.317767e-02
1.882162e-02
1.360637e-02
7.387726e-03
0.000000e+00
0.000000e+00
6.360056e-03
1.193694e-02
1.681182e-02
2.105950e-02
2.474794e-02
2.793803e-02
3.068356e-02
3.303137e-02
3.502158e-02
3.668793e-02
3.805809e-02
3.915395e-02
3.999182e-02
4.058260e-02
4.093182e-02
4.103955e-02
4.090023e-02
4.050237e-02
3.982809e-02
3.885249e-02
3.754290e-02
3.585794e-02
3.374640e-02
3.114593e-02
2.798163e-02
2.416445e-02
1.958957e-02
1.413477e-02
7.658811e-03
0.000000e+00
0.000000e+00
6.522435e-03
1.226335e-02
1.730040e-02
2.170519e-02
2.554301e-02
2.887262e-02
3.174628e-02
3.420976e-02
3.630257e-02
3.805809e-02
3.950387e-02
4.066175e-02
4.154805e-02
4.217366e-02
4.254397e-02
4.265888e-02
4.251250e-02
4.209287e-02
4.138152e-02
4.035284e-02
3.897341e-02
3.720105e-02
3.498386e-02
3.225897e-02
2.895126e-02
2.497195e-02
2.021710e-02
1.456605e-02
7.879908e-03
0.000000e+00
0.000000e+00
6.650520e-03
1.252102e-02
1.768654e-02
2.221628e-02
2.617341e-02
2.961501e-02
3.259200e-02
3.514923e-02
3.732554e-02
3.915395e-02
4.066175e-02
4.187067e-02
4.279694e-02
4.345136e-02
4.383922e-02
4.396020e-02
4.380813e-02
4.337072e-02
4.262901e-02
4.155692e-02
4.012046e-02
3.827693e-02
3.597396e-02
3.314841e-02
2.972512e-02
2.561564e-02
2.071678e-02
1.490917e-02
8.055709e-03
0.000000e+00
0.000000e+00
6.747362e-03
1.271595e-02
1.797893e-02
2.260373e-02
2.665197e-02
3.017941e-02
3.323593e-02
3.586559e-02
3.810668e-02
3.999182e-02
4.154805e-02
4.279694e-02
4.375461e-02
4.443172e-02
4.483344e-02
4.495929e-02
4.480289e-02
4.435165e-02
4.358631e-02
4.248041e-02
4.099960e-02
3.910084e-02
3.673149e-02
3.382825e-02
3.031603e-02
2.610668e-02
2.109765e-02
1.517053e-02
8.189565e-03
0.000000e+00
0.000000e+00
6.814976e-03
1.285212e-02
1.818333e-02
2.287486e-02
2.698725e-02
3.057534e-02
3.368825e-02
3.636946e-02
3.865681e-02
4.058260e-02
4.217366e-02
4.345136e-02
4.443172e-02
4.512528e-02
4.553711e-02
4.566657e-02
4.550713e-02
4.504601e-02
4.426374e-02
4.313362e-02
4.162108e-02
3.968286e-02
3.726619e-02
3.430771e-02
3.073242e-02
2.645243e-02
2.136564e-02
1.535433e-02
8.283668e-03
0.000000e+00
0.000000e+00
6.854459e-03
1.293167e-02
1.830286e-02
2.303361e-02
2.718383e-02
3.080785e-02
3.395432e-02
3.666636e-02
3.898150e-02
4.093182e-02
4.254397e-02
4.383922e-02
4.483344e-02
4.553711e-02
4.595518e-02
4.608694e-02
4.592574e-02
4.545870e-02
4.466623e-02
4.352152e-02
4.198986e-02
4.002794e-02
3.758291e-02
3.459144e-02
3.097859e-02
2.665664e-02
2.152380e-02
1.546274e-02
8.339149e-03
0.000000e+00
0.000000e+00
6.866034e-03
1.295505e-02
1.833812e-02
2.308067e-02
2.724246e-02
3.087764e-02
3.403475e-02
3.675673e-02
3.908101e-02
4.103955e-02
4.265888e-02
4.396020e-02
4.495929e-02
4.566657e-02
4.608694e-02
4.621962e-02
4.605795e-02
4.558900e-02
4.479315e-02
4.364358e-02
4.210560e-02
4.013589e-02
3.768162e-02
3.467952e-02
3.105471e-02
2.671957e-02
2.157238e-02
1.549597e-02
8.356127e-03
0.000000e+00
0.000000e+00
6.849057e-03
1.292096e-02
1.828717e-02
2.301347e-02
2.715996e-02
3.078099e-02
3.392527e-02
3.663585e-02
3.895018e-02
4.090023e-02
4.251250e-02
4.380813e-02
4.480289e-02
4.550713e-02
4.592574e-02
4.605795e-02
4.589711e-02
4.543033e-02
4.463808e-02
4.349363e-02
4.196239e-02
4.000116e-02
3.755723e-02
3.456739e-02
3.095683e-02
2.663791e-02
2.150883e-02
1.545224e-02
8.333698e-03
0.000000e+00
0.000000e+00
6.801963e-03
1.282626e-02
1.814537e-02
2.282600e-02
2.692903e-02
3.050947e-02
3.361650e-02
3.629349e-02
3.857809e-02
4.050237e-02
4.209287e-02
4.337072e-02
4.435165e-02
4.504601e-02
4.545870e-02
4.558900e-02
4.543033e-02
4.496996e-02
4.418851e-02
4.305948e-02
4.154850e-02
3.961261e-02
3.719931e-02
3.424555e-02
3.067655e-02
2.640458e-02
2.132758e-02
1.532771e-02
8.269873e-03
0.000000e+00
0.000000e+00
6.722162e-03
1.266582e-02
1.790514e-02
2.250842e-02
2.653786e-02
3.004955e-02
3.309345e-02
3.571348e-02
3.794761e-02
3.982809e-02
4.138152e-02
4.262901e-02
4.358631e-02
4.426374e-02
4.466623e-02
4.479315e-02
4.463808e-02
4.418851e-02
4.342537e-02
4.232248e-02
4.084589e-02
3.895302e-02
3.659171e-02
3.369915e-02
3.020067e-02
2.600838e-02
2.101977e-02
1.511622e-02
8.161466e-03
0.000000e+00
0.000000e+00
6.605860e-03
1.243209e-02
1.755544e-02
2.204651e-02
2.596946e-02
2.938191e-02
3.233490e-02
3.487306e-02
3.703478e-02
3.885249e-02
4.035284e-02
4.155692e-02
4.248041e-02
4.313362e-02
4.352152e-02
4.364358e-02
4.349363e-02
4.305948e-02
4.232248e-02
4.125701e-02
3.982967e-02
3.799848e-02
3.571185e-02
3.290738e-02
2.951058e-02
2.543342e-02
2.057278e-02
1.480893e-02
8.003909e-03
0.000000e+00
0.000000e+00
6.447798e-03
1.211468e-02
1.708108e-02
2.142086e-02
2.520084e-02
2.848059e-02
3.131250e-02
3.374203e-02
3.580798e-02
3.754290e-02
3.897341e-02
4.012046e-02
4.099960e-02
4.162108e-02
4.198986e-02
4.210560e-02
4.196239e-02
4.154850e-02
4.084589e-02
3.982967e-02
3.846728e-02
3.671762e-02
3.452995e-02
3.184258e-02
2.858141e-02
2.465834e-02
1.996958e-02
1.439388e-02
7.790973e-03
0.000000e+00
0.000000e+00
6.240846e-03
1.169955e-02
1.646175e-02
2.060573e-02
2.420172e-02
2.731171e-02
2.998961e-02
3.228165e-02
3.422694e-02
3.585794e-02
3.720105e-02
3.827693e-02
3.910084e-02
3.968286e-02
4.002794e-02
4.013589e-02
4.000116e-02
3.961261e-02
3.895302e-02
3.799848e-02
3.671762e-02
3.507062e-02
3.300801e-02
3.046921e-02
2.738092e-02
2.365523e-02
1.918767e-02
1.385518e-02
7.514361e-03
0.000000e+00
0.000000e+00
5.975391e-03
1.116794e-02
1.567055e-02
1.956738e-02
2.293296e-02
2.583198e-02
2.831985e-02
3.044334e-02
3.224149e-02
3.374640e-02
3.498386e-02
3.597396e-02
3.673149e-02
3.726619e-02
3.758291e-02
3.768162e-02
3.755723e-02
3.719931e-02
3.659171e-02
3.571185e-02
3.452995e-02
3.300801e-02
3.109840e-02
2.874235e-02
2.586798e-02
2.238810e-02
1.819779e-02
1.317193e-02
7.163093e-03
0.000000e+00
0.000000e+00
5.638387e-03
1.049463e-02
1.467183e-02
1.826188e-02
2.134433e-02
2.398664e-02
2.624528e-02
2.816701e-02
2.979019e-02
3.114593e-02
3.225897e-02
3.314841e-02
3.382825e-02
3.430771e-02
3.459144e-02
3.467952e-02
3.456739e-02
3.424555e-02
3.369915e-02
3.290738e-02
3.184258e-02
3.046921e-02
2.874235e-02
2.660597e-02
2.399063e-02
2.081082e-02
1.696186e-02
1.231661e-02
6.722554e-03
0.000000e+00
0.000000e+00
5.211781e-03
9.645276e-03
1.341811e-02
1.663194e-02
1.937169e-02
2.170695e-02
2.369426e-02
2.537925e-02
2.679862e-02
2.798163e-02
2.895126e-02
2.972512e-02
3.031603e-02
3.073242e-02
3.097859e-02
3.105471e-02
3.095683e-02
3.067655e-02
3.020067e-02
2.951058e-02
2.858141e-02
2.738092e-02
2.586798e-02
2.399063e-02
2.168343e-02
1.886424e-02
1.543008e-02
1.125248e-02
6.172944e-03
0.000000e+00
0.000000e+00
4.669763e-03
8.572115e-03
1.184535e-02
1.460258e-02
1.693322e-02
1.890715e-02
2.057892e-02
2.199125e-02
2.317767e-02
2.416445e-02
2.497195e-02
2.561564e-02
2.610668e-02
2.645243e-02
2.665664e-02
2.671957e-02
2.663791e-02
2.640458e-02
2.600838e-02
2.543342e-02
2.465834e-02
2.365523e-02
2.238810e-02
2.081082e-02
1.886424e-02
1.647227e-02
1.353653e-02
9.929472e-03
5.486584e-03
0.000000e+00
0.000000e+00
3.973521e-03
7.206513e-03
9.865782e-03
1.207520e-02
1.392491e-02
1.548095e-02
1.679244e-02
1.789653e-02
1.882162e-02
1.958957e-02
2.021710e-02
2.071678e-02
2.109765e-02
2.136564e-02
2.152380e-02
2.157238e-02
2.150883e-02
2.132758e-02
2.101977e-02
2.057278e-02
1.996958e-02
1.918767e-02
1.819779e-02
1.696186e-02
1.543008e-02
1.353653e-02
1.119261e-02
8.277181e-03
4.622798e-03
0.000000e+00
0.000000e+00
3.060090e-03
5.445842e-03
7.357232e-03
8.919983e-03
1.021526e-02
1.129785e-02
1.220634e-02
1.296885e-02
1.360637e-02
1.413477e-02
1.456605e-02
1.490917e-02
1.517053e-02
1.535433e-02
1.546274e-02
1.549597e-02
1.545224e-02
1.532771e-02
1.511622e-02
1.480893e-02
1.439388e-02
1.385518e-02
1.317193e-02
1.231661e-02
1.125248e-02
9.929472e-03
8.277181e-03
6.192449e-03
3.517073e-03
0.000000e+00
0.000000e+00
1.815442e-03
3.129766e-03
4.148051e-03
4.967156e-03
5.640214e-03
6.199929e-03
6.668152e-03
7.060318e-03
7.387726e-03
7.658811e-03
7.879908e-03
8.055709e-03
8.189565e-03
8.283668e-03
8.339149e-03
8.356127e-03
8.333698e-03
8.269873e-03
8.161466e-03
8.003909e-03
7.790973e-03
7.514361e-03
7.163093e-03
6.722554e-03
6.172944e-03
5.486584e-03
4.622798e-03
3.517073e-03
2.054974e-03
0.000000e+00
0.000000e+00
0.000000e+00
0.000000e+00
0.000000e+00
0.000000e+00
0.000000e+00
0.000000e+00
0.000000e+00
0.000000e+00
0.000000e+00
0.000000e+00
0.000000e+00
0.000000e+00
0.000000e+00
0.000000e+00
0.000000e+00
0.000000e+00
0.000000e+00
0.000000e+00
0.000000e+00
0.000000e+00
0.000000e+00
0.000000e+00
0.000000e+00
0.000000e+00
0.000000e+00
0.000000e+00
0.000000e+00
0.000000e+00
0.000000e+00
0.000000e+00
