# vtk DataFile Version 3.0
vtk output
ASCII
DATASET UNSTRUCTURED_GRID
POINTS 961 float
0.000000e+00 0.000000e+00 0.000000e+00
3.333333e-02 0.000000e+00 0.000000e+00
6.666667e-02 0.000000e+00 0.000000e+00
1.000000e-01 0.000000e+00 0.000000e+00
1.333333e-01 0.000000e+00 0.000000e+00
1.666667e-01 0.000000e+00 0.000000e+00
2.000000e-01 0.000000e+00 0.000000e+00
2.333333e-01 0.000000e+00 0.000000e+00
2.666667e-01 0.000000e+00 0.000000e+00
3.000000e-01 0.000000e+00 0.000000e+00
3.333333e-01 0.000000e+00 0.000000e+00
3.666667e-01 0.000000e+00 0.000000e+00
4.000000e-01 0.000000e+00 0.000000e+00
4.333333e-01 0.000000e+00 0.000000e+00
4.666667e-01 0.000000e+00 0.000000e+00
5.000000e-01 0.000000e+00 0.000000e+00
5.333333e-01 0.000000e+00 0.000000e+00
5.666667e-01 0.000000e+00 0.000000e+00
6.000000e-01 0.000000e+00 0.000000e+00
6.333333e-01 0.000000e+00 0.000000e+00
6.666667e-01 0.000000e+00 0.000000e+00
7.000000e-01 0.000000e+00 0.000000e+00
7.333333e-01 0.000000e+00 0.000000e+00
7.666667e-01 0.000000e+00 0.000000e+00
8.000000e-01 0.000000e+00 0.000000e+00
8.333333e-01 0.000000e+00 0.000000e+00
8.666667e-01 0.000000e+00 0.000000e+00
9.000000e-01 0.000000e+00 0.000000e+00
9.333333e-01 0.000000e+00 0.000000e+00
9.666667e-01 0.000000e+00 0.000000e+00
1.000000e+00 0.000000e+00 0.000000e+00
0.000000e+00 3.333333e-02 0.000000e+00
3.333333e-02 3.333333e-02 0.000000e+00
6.666667e-02 3.333333e-02 0.000000e+00
1.000000e-01 3.333333e-02 0.000000e+00
1.333333e-01 3.333333e-02 0.000000e+00
1.666667e-01 3.333333e-02 0.000000e+00
2.000000e-01 3.333333e-02 0.000000e+00
2.333333e-01 3.333333e-02 0.000000e+00
2.666667e-01 3.333333e-02 0.000000e+00
3.000000e-01 3.333333e-02 0.000000e+00
3.333333e-01 3.333333e-02 0.000000e+00
3.666667e-01 3.333333e-02 0.000000e+00
4.000000e-01 3.333333e-02 0.000000e+00
4.333333e-01 3.333333e-02 0.000000e+00
4.666667e-01 3.333333e-02 0.000000e+00
5.000000e-01 3.333333e-02 0.000000e+00
5.333333e-01 3.333333e-02 0.000000e+00
5.666667e-01 3.333333e-02 0.000000e+00
6.000000e-01 3.333333e-02 0.000000e+00
6.333333e-01 3.333333e-02 0.000000e+00
6.666667e-01 3.333333e-02 0.000000e+00
7.000000e-01 3.333333e-02 0.000000e+00
7.333333e-01 3.333333e-02 0.000000e+00
7.666667e-01 3.333333e-02 0.000000e+00
8.000000e-01 3.333333e-02 0.000000e+00
8.333333e-01 3.333333e-02 0.000000e+00
8.666667e-01 3.333333e-02 0.000000e+00
9.000000e-01 3.333333e-02 0.000000e+00
9.333333e-01 3.333333e-02 0.000000e+00
9.666667e-01 3.333333e-02 0.000000e+00
1.000000e+00 3.333333e-02 0.000000e+00
0.000000e+00 6.666667e-02 0.000000e+00
3.333333e-02 6.666667e-02 0.000000e+00
6.666667e-02 6.666667e-02 0.000000e+00
1.000000e-01 6.666667e-02 0.000000e+00
1.333333e-01 6.666667e-02 0.000000e+00
1.666667e-01 6.666667e-02 0.000000e+00
2.000000e-01 6.666667e-02 0.000000e+00
2.333333e-01 6.666667e-02 0.000000e+00
2.666667e-01 6.666667e-02 0.000000e+00
3.000000e-01 6.666667e-02 0.000000e+00
3.333333e-01 6.666667e-02 0.000000e+00
3.666667e-01 6.666667e-02 0.000000e+00
4.000000e-01 6.666667e-02 0.000000e+00
4.333333e-01 6.666667e-02 0.000000e+00
4.666667e-01 6.666667e-02 0.000000e+00
5.000000e-01 6.666667e-02 0.000000e+00
5.333333e-01 6.666667e-02 0.000000e+00
5.666667e-01 6.666667e-02 0.000000e+00
6.000000e-01 6.666667e-02 0.000000e+00
6.333333e-01 6.666667e-02 0.000000e+00
6.666667e-01 6.666667e-02 0.000000e+00
7.000000e-01 6.666667e-02 0.000000e+00
7.333333e-01 6.666667e-02 0.000000e+00
7.666667e-01 6.666667e-02 0.000000e+00
8.000000e-01 6.666667e-02 0.000000e+00
8.333333e-01 6.666667e-02 0.000000e+00
8.666667e-01 6.666667e-02 0.000000e+00
9.000000e-01 6.666667e-02 0.000000e+00
9.333333e-01 6.666667e-02 0.000000e+00
9.666667e-01 6.666667e-02 0.000000e+00
1.000000e+00 6.666667e-02 0.000000e+00
0.000000e+00 1.000000e-01 0.000000e+00
3.333333e-02 1.000000e-01 0.000000e+00
6.666667e-02 1.000000e-01 0.000000e+00
1.000000e-01 1.000000e-01 0.000000e+00
1.333333e-01 1.000000e-01 0.000000e+00
1.666667e-01 1.000000e-01 0.000000e+00
2.000000e-01 1.000000e-01 0.000000e+00
2.333333e-01 1.000000e-01 0.000000e+00
2.666667e-01 1.000000e-01 0.000000e+00
3.000000e-01 1.000000e-01 0.000000e+00
3.333333e-01 1.000000e-01 0.000000e+00
3.666667e-01 1.000000e-01 0.000000e+00
4.000000e-01 1.000000e-01 0.000000e+00
4.333333e-01 1.000000e-01 0.000000e+00
4.666667e-01 1.000000e-01 0.000000e+00
5.000000e-01 1.000000e-01 0.000000e+00
5.333333e-01 1.000000e-01 0.000000e+00
5.666667e-01 1.000000e-01 0.000000e+00
6.000000e-01 1.000000e-01 0.000000e+00
6.333333e-01 1.000000e-01 0.000000e+00
6.666667e-01 1.000000e-01 0.000000e+00
7.000000e-01 1.000000e-01 0.000000e+00
7.333333e-01 1.000000e-01 0.000000e+00
7.666667e-01 1.000000e-01 0.000000e+00
8.000000e-01 1.000000e-01 0.000000e+00
8.333333e-01 1.000000e-01 0.000000e+00
8.666667e-01 1.000000e-01 0.000000e+00
9.000000e-01 1.000000e-01 0.000000e+00
9.333333e-01 1.000000e-01 0.000000e+00
9.666667e-01 1.000000e-01 0.000000e+00
1.000000e+00 1.000000e-01 0.000000e+00
0.000000e+00 1.333333e-01 0.000000e+00
3.333333e-02 1.333333e-01 0.000000e+00
6.666667e-02 1.333333e-01 0.000000e+00
1.000000e-01 1.333333e-01 0.000000e+00
1.333333e-01 1.333333e-01 0.000000e+00
1.666667e-01 1.333333e-01 0.000000e+00
2.000000e-01 1.333333e-01 0.000000e+00
2.333333e-01 1.333333e-01 0.000000e+00
2.666667e-01 1.333333e-01 0.000000e+00
3.000000e-01 1.333333e-01 0.000000e+00
3.333333e-01 1.333333e-01 0.000000e+00
3.666667e-01 1.333333e-01 0.000000e+00
4.000000e-01 1.333333e-01 0.000000e+00
4.333333e-01 1.333333e-01 0.000000e+00
4.666667e-01 1.333333e-01 0.000000e+00
5.000000e-01 1.333333e-01 0.000000e+00
5.333333e-01 1.333333e-01 0.000000e+00
5.666667e-01 1.333333e-01 0.000000e+00
6.000000e-01 1.333333e-01 0.000000e+00
6.333333e-01 1.333333e-01 0.000000e+00
6.666667e-01 1.333333e-01 0.000000e+00
7.000000e-01 1.333333e-01 0.000000e+00
7.333333e-01 1.333333e-01 0.000000e+00
7.666667e-01 1.333333e-01 0.000000e+00
8.000000e-01 1.333333e-01 0.000000e+00
8.333333e-01 1.333333e-01 0.000000e+00
8.666667e-01 1.333333e-01 0.000000e+00
9.000000e-01 1.333333e-01 0.000000e+00
9.333333e-01 1.333333e-01 0.000000e+00
9.666667e-01 1.333333e-01 0.000000e+00
1.000000e+00 1.333333e-01 0.000000e+00
0.000000e+00 1.666667e-01 0.000000e+00
3.333333e-02 1.666667e-01 0.000000e+00
6.666667e-02 1.666667e-01 0.000000e+00
1.000000e-01 1.666667e-01 0.000000e+00
1.333333e-01 1.666667e-01 0.000000e+00
1.666667e-01 1.666667e-01 0.000000e+00
2.000000e-01 1.666667e-01 0.000000e+00
2.333333e-01 1.666667e-01 0.000000e+00
2.666667e-01 1.666667e-01 0.000000e+00
3.000000e-01 1.666667e-01 0.000000e+00
3.333333e-01 1.666667e-01 0.000000e+00
3.666667e-01 1.666667e-01 0.000000e+00
4.000000e-01 1.666667e-01 0.000000e+00
4.333333e-01 1.666667e-01 0.000000e+00
4.666667e-01 1.666667e-01 0.000000e+00
5.000000e-01 1.666667e-01 0.000000e+00
5.333333e-01 1.666667e-01 0.000000e+00
5.666667e-01 1.666667e-01 0.000000e+00
6.000000e-01 1.666667e-01 0.000000e+00
6.333333e-01 1.666667e-01 0.000000e+00
6.666667e-01 1.666667e-01 0.000000e+00
7.000000e-01 1.666667e-01 0.000000e+00
7.333333e-01 1.666667e-01 0.000000e+00
7.666667e-01 1.666667e-01 0.000000e+00
8.000000e-01 1.666667e-01 0.000000e+00
8.333333e-01 1.666667e-01 0.000000e+00
8.666667e-01 1.666667e-01 0.000000e+00
9.000000e-01 1.666667e-01 0.000000e+00
9.333333e-01 1.666667e-01 0.000000e+00
9.666667e-01 1.666667e-01 0.000000e+00
1.000000e+00 1.666667e-01 0.000000e+00
0.000000e+00 2.000000e-01 0.000000e+00
3.333333e-02 2.000000e-01 0.000000e+00
6.666667e-02 2.000000e-01 0.000000e+00
1.000000e-01 2.000000e-01 0.000000e+00
1.333333e-01 2.000000e-01 0.000000e+00
1.666667e-01 2.000000e-01 0.000000e+00
2.000000e-01 2.000000e-01 0.000000e+00
2.333333e-01 2.000000e-01 0.000000e+00
2.666667e-01 2.000000e-01 0.000000e+00
3.000000e-01 2.000000e-01 0.000000e+00
3.333333e-01 2.000000e-01 0.000000e+00
3.666667e-01 2.000000e-01 0.000000e+00
4.000000e-01 2.000000e-01 0.000000e+00
4.333333e-01 2.000000e-01 0.000000e+00
4.666667e-01 2.000000e-01 0.000000e+00
5.000000e-01 2.000000e-01 0.000000e+00
5.333333e-01 2.000000e-01 0.000000e+00
5.666667e-01 2.000000e-01 0.000000e+00
6.000000e-01 2.000000e-01 0.000000e+00
6.333333e-01 2.000000e-01 0.000000e+00
6.666667e-01 2.000000e-01 0.000000e+00
7.000000e-01 2.000000e-01 0.000000e+00
7.333333e-01 2.000000e-01 0.000000e+00
7.666667e-01 2.000000e-01 0.000000e+00
8.000000e-01 2.000000e-01 0.000000e+00
8.333333e-01 2.000000e-01 0.000000e+00
8.666667e-01 2.000000e-01 0.000000e+00
9.000000e-01 2.000000e-01 0.000000e+00
9.333333e-01 2.000000e-01 0.000000e+00
9.666667e-01 2.000000e-01 0.000000e+00
1.000000e+00 2.000000e-01 0.000000e+00
0.000000e+00 2.333333e-01 0.000000e+00
3.333333e-02 2.333333e-01 0.000000e+00
6.666667e-02 2.333333e-01 0.000000e+00
1.000000e-01 2.333333e-01 0.000000e+00
1.333333e-01 2.333333e-01 0.000000e+00
1.666667e-01 2.333333e-01 0.000000e+00
2.000000e-01 2.333333e-01 0.000000e+00
2.333333e-01 2.333333e-01 0.000000e+00
2.666667e-01 2.333333e-01 0.000000e+00
3.000000e-01 2.333333e-01 0.000000e+00
3.333333e-01 2.333333e-01 0.000000e+00
3.666667e-01 2.333333e-01 0.000000e+00
4.000000e-01 2.333333e-01 0.000000e+00
4.333333e-01 2.333333e-01 0.000000e+00
4.666667e-01 2.333333e-01 0.000000e+00
5.000000e-01 2.333333e-01 0.000000e+00
5.333333e-01 2.333333e-01 0.000000e+00
5.666667e-01 2.333333e-01 0.000000e+00
6.000000e-01 2.333333e-01 0.000000e+00
6.333333e-01 2.333333e-01 0.000000e+00
6.666667e-01 2.333333e-01 0.000000e+00
7.000000e-01 2.333333e-01 0.000000e+00
7.333333e-01 2.333333e-01 0.000000e+00
7.666667e-01 2.333333e-01 0.000000e+00
8.000000e-01 2.333333e-01 0.000000e+00
8.333333e-01 2.333333e-01 0.000000e+00
8.666667e-01 2.333333e-01 0.000000e+00
9.000000e-01 2.333333e-01 0.000000e+00
9.333333e-01 2.333333e-01 0.000000e+00
9.666667e-01 2.333333e-01 0.000000e+00
1.000000e+00 2.333333e-01 0.000000e+00
0.000000e+00 2.666667e-01 0.000000e+00
3.333333e-02 2.666667e-01 0.000000e+00
6.666667e-02 2.666667e-01 0.000000e+00
1.000000e-01 2.666667e-01 0.000000e+00
1.333333e-01 2.666667e-01 0.000000e+00
1.666667e-01 2.666667e-01 0.000000e+00
[...]
POINT_DATA 961
SCALARS u float
LOOKUP_TABLE default
0.000000e+00
0.000000e+00
0.000000e+00
0.000000e+00
0.000000e+00
0.000000e+00
0.000000e+00
0.000000e+00
0.000000e+00
0.000000e+00
0.000000e+00
0.000000e+00
0.000000e+00
0.000000e+00
0.000000e+00
0.000000e+00
0.000000e+00
0.000000e+00
0.000000e+00
0.000000e+00
0.000000e+00
0.000000e+00
0.000000e+00
0.000000e+00
0.000000e+00
0.000000e+00
0.000000e+00
0.000000e+00
0.000000e+00
0.000000e+00
0.000000e+00
0.000000e+00
1.867757e-03
3.242225e-03
4.328237e-03
5.220668e-03
5.970326e-03
6.607677e-03
7.152540e-03
7.618549e-03
8.015425e-03
8.350226e-03
8.628086e-03
8.852661e-03
9.026407e-03
9.150752e-03
9.226190e-03
9.252325e-03
9.227855e-03
9.150526e-03
9.017027e-03
8.822819e-03
8.561888e-03
8.226364e-03
7.805949e-03
7.287013e-03
6.651093e-03
5.872257e-03
4.912009e-03
3.708391e-03
2.149516e-03
0.000000e+00
0.000000e+00
3.242225e-03
5.815717e-03
7.919467e-03
9.676832e-03
1.116593e-02
1.243833e-02
1.352951e-02
1.446473e-02
1.526236e-02
1.593593e-02
1.649537e-02
1.694778e-02
1.729795e-02
1.754865e-02
1.770082e-02
1.775361e-02
1.770442e-02
1.754874e-02
1.727995e-02
1.688905e-02
1.636412e-02
1.568969e-02
1.484564e-02
1.380563e-02
1.253461e-02
1.098469e-02
9.088071e-03
6.744469e-03
3.798275e-03
0.000000e+00
0.000000e+00
4.328237e-03
7.919467e-03
1.093590e-02
1.349740e-02
1.569010e-02
1.757604e-02
1.920050e-02
2.059702e-02
2.179067e-02
2.280027e-02
2.363979e-02
2.431930e-02
2.484561e-02
2.522263e-02
2.545164e-02
2.553130e-02
2.545768e-02
2.522407e-02
2.482072e-02
2.423438e-02
2.344767e-02
2.243814e-02
2.117698e-02
1.962702e-02
1.773988e-02
1.545163e-02
1.267613e-02
9.295206e-03
5.144807e-03
0.000000e+00
0.000000e+00
5.220668e-03
9.676832e-03
1.349740e-02
1.678859e-02
1.963406e-02
2.209853e-02
2.423185e-02
2.607240e-02
2.764975e-02
2.898651e-02
3.009972e-02
3.100179e-02
3.170110e-02
3.220245e-02
3.250725e-02
3.261364e-02
3.251637e-02
3.220666e-02
3.167184e-02
3.089481e-02
2.985331e-02
2.851889e-02
2.685544e-02
2.481724e-02
2.234611e-02
1.936760e-02
1.578582e-02
1.147678e-02
6.281249e-03
0.000000e+00
0.000000e+00
5.970326e-03
1.116593e-02
1.569010e-02
1.963406e-02
2.307454e-02
2.607435e-02
2.868412e-02
3.094426e-02
3.288674e-02
3.453656e-02
3.591279e-02
3.702944e-02
3.789600e-02
3.851782e-02
3.889629e-02
3.902891e-02
3.890920e-02
3.852645e-02
3.786535e-02
3.690543e-02
3.562026e-02
3.397639e-02
3.193198e-02
2.943487e-02
2.642021e-02
2.280737e-02
1.849620e-02
1.336300e-02
7.257100e-03
0.000000e+00
0.000000e+00
6.607677e-03
1.243833e-02
1.757604e-02
2.209853e-02
2.607435e-02
2.956212e-02
3.261087e-02
3.526102e-02
3.754531e-02
3.948984e-02
4.111478e-02
4.243507e-02
4.346082e-02
4.419760e-02
4.464660e-02
4.480464e-02
4.466403e-02
4.421233e-02
4.343192e-02
4.229945e-02
4.078503e-02
3.885125e-02
3.645189e-02
3.353026e-02
3.001727e-02
2.582905e-02
2.086449e-02
1.500282e-02
8.102167e-03
0.000000e+00
0.000000e+00
7.152540e-03
1.352951e-02
1.920050e-02
2.423185e-02
2.868412e-02
3.261087e-02
3.605832e-02
3.906551e-02
4.166481e-02
4.388242e-02
4.573886e-02
4.724937e-02
4.842426e-02
4.926905e-02
4.978455e-02
4.996685e-02
4.980714e-02
4.929142e-02
4.840010e-02
4.710742e-02
4.538073e-02
4.317957e-02
4.045450e-02
3.714581e-02
3.318190e-02
2.847764e-02
2.293266e-02
1.643008e-02
8.835930e-03
0.000000e+00
0.000000e+00
7.618549e-03
1.446473e-02
2.059702e-02
2.607240e-02
3.094426e-02
3.526102e-02
3.906551e-02
4.239471e-02
4.527982e-02
4.774646e-02
4.981489e-02
5.150021e-02
5.281256e-02
5.375717e-02
5.433435e-02
5.453945e-02
5.436259e-02
5.378843e-02
5.279570e-02
5.135670e-02
4.943661e-02
4.699268e-02
4.397323e-02
4.031659e-02
3.594992e-02
3.078794e-02
2.473193e-02
1.766897e-02
9.471854e-03
0.000000e+00
0.000000e+00
8.015425e-03
1.526236e-02
2.179067e-02
2.764975e-02
3.288674e-02
3.754531e-02
4.166481e-02
4.527982e-02
4.841996e-02
5.110983e-02
5.336900e-02
5.521213e-02
5.664893e-02
5.768414e-02
5.831753e-02
5.854365e-02
5.835169e-02
5.772513e-02
5.664133e-02
5.507103e-02
5.297776e-02
5.031707e-02
4.703579e-02
4.307112e-02
3.834971e-02
3.278684e-02
2.628572e-02
1.873713e-02
1.001956e-02
0.000000e+00
0.000000e+00
8.350226e-03
1.593593e-02
2.280027e-02
2.898651e-02
3.453656e-02
3.948984e-02
4.388242e-02
4.774646e-02
5.110983e-02
5.399585e-02
5.642324e-02
5.840594e-02
5.995309e-02
6.106886e-02
6.175238e-02
6.199750e-02
6.179253e-02
6.111995e-02
5.995602e-02
5.827025e-02
5.602492e-02
5.317443e-02
4.966461e-02
4.543206e-02
4.040343e-02
3.449488e-02
2.761157e-02
1.964756e-02
1.048605e-02
0.000000e+00
0.000000e+00
8.628086e-03
1.649537e-02
2.363979e-02
3.009972e-02
3.591279e-02
4.111478e-02
4.573886e-02
4.981489e-02
5.336900e-02
5.642324e-02
5.899531e-02
6.109838e-02
6.274092e-02
6.392650e-02
6.465361e-02
6.491542e-02
6.469952e-02
6.398755e-02
6.275486e-02
6.097005e-02
5.859447e-02
5.558172e-02
5.187704e-02
4.741678e-02
4.212787e-02
3.592742e-02
2.872241e-02
2.040973e-02
1.087636e-02
0.000000e+00
0.000000e+00
8.852661e-03
1.694778e-02
2.431930e-02
3.100179e-02
3.702944e-02
4.243507e-02
4.724937e-02
5.150021e-02
5.521213e-02
5.840594e-02
6.109838e-02
6.330183e-02
6.502409e-02
6.626814e-02
6.703188e-02
6.730789e-02
6.708311e-02
6.633853e-02
6.504879e-02
6.318180e-02
6.069827e-02
5.755125e-02
5.368566e-02
4.903782e-02
4.353505e-02
3.709539e-02
2.962742e-02
2.103029e-02
1.119402e-02
0.000000e+00
0.000000e+00
9.026407e-03
1.729795e-02
2.484561e-02
3.170110e-02
3.789600e-02
4.346082e-02
4.842426e-02
5.281256e-02
5.664893e-02
5.995309e-02
6.274092e-02
6.502409e-02
6.680980e-02
6.810049e-02
6.889355e-02
6.918104e-02
6.894941e-02
6.817912e-02
6.684431e-02
6.491237e-02
6.234359e-02
5.909069e-02
5.509841e-02
5.030317e-02
4.463269e-02
3.800584e-02
3.033246e-02
2.151351e-02
1.144131e-02
0.000000e+00
0.000000e+00
9.150752e-03
1.754865e-02
2.522263e-02
3.220245e-02
3.851782e-02
4.419760e-02
4.926905e-02
5.375717e-02
5.768414e-02
6.106886e-02
6.392650e-02
6.626814e-02
6.810049e-02
6.942554e-02
7.024027e-02
7.053637e-02
7.029990e-02
6.951093e-02
6.814326e-02
6.616396e-02
6.353304e-02
6.020303e-02
5.611864e-02
5.121641e-02
4.542442e-02
3.866217e-02
3.084047e-02
2.186156e-02
1.161938e-02
0.000000e+00
0.000000e+00
9.226190e-03
1.770082e-02
2.545164e-02
3.250725e-02
3.889629e-02
4.464660e-02
4.978455e-02
5.433435e-02
5.831753e-02
6.175238e-02
6.465361e-02
6.703188e-02
6.889355e-02
7.024027e-02
7.106877e-02
7.137044e-02
7.113110e-02
7.033062e-02
6.894257e-02
6.693386e-02
6.426436e-02
6.088654e-02
5.674514e-02
5.177681e-02
4.590993e-02
3.906439e-02
3.115161e-02
2.207464e-02
1.172837e-02
0.000000e+00
0.000000e+00
9.252325e-03
1.775361e-02
2.553130e-02
3.261364e-02
3.902891e-02
4.480464e-02
4.996685e-02
5.453945e-02
5.854365e-02
6.199750e-02
6.491542e-02
6.730789e-02
6.918104e-02
7.053637e-02
7.137044e-02
7.167452e-02
7.143433e-02
7.062965e-02
6.923400e-02
6.721424e-02
6.453027e-02
6.113459e-02
5.697199e-02
5.197926e-02
4.608490e-02
3.920903e-02
3.126330e-02
2.215101e-02
1.176740e-02
0.000000e+00
0.000000e+00
9.227855e-03
1.770442e-02
2.545768e-02
3.251637e-02
3.890920e-02
4.466403e-02
4.980714e-02
5.436259e-02
5.835169e-02
6.179253e-02
6.469952e-02
6.708311e-02
6.894941e-02
7.029990e-02
7.113110e-02
7.143433e-02
7.119533e-02
7.039395e-02
6.900380e-02
6.699188e-02
6.431820e-02
6.093540e-02
5.678841e-02
5.181408e-02
4.594097e-02
3.908915e-02
3.117013e-02
2.208698e-02
1.173458e-02
0.000000e+00
0.000000e+00
9.150526e-03
1.754874e-02
2.522407e-02
3.220666e-02
3.852645e-02
4.421233e-02
4.929142e-02
5.378843e-02
5.772513e-02
6.111995e-02
6.398755e-02
6.633853e-02
6.817912e-02
6.951093e-02
7.033062e-02
7.062965e-02
7.039395e-02
6.960360e-02
6.823246e-02
6.624782e-02
6.360996e-02
6.027178e-02
5.617841e-02
5.126679e-02
4.546541e-02
3.869406e-02
3.086376e-02
2.187678e-02
1.162693e-02
0.000000e+00
0.000000e+00
9.017027e-03
1.727995e-02
2.482072e-02
3.167184e-02
3.786535e-02
4.343192e-02
4.840010e-02
5.279570e-02
5.664133e-02
5.995602e-02
6.275486e-02
6.504879e-02
6.684431e-02
6.814326e-02
6.894257e-02
6.923400e-02
6.900380e-02
6.823246e-02
6.689428e-02
6.495700e-02
6.238138e-02
5.912072e-02
5.512047e-02
5.031770e-02
4.464077e-02
3.800903e-02
3.033257e-02
2.151234e-02
1.144031e-02
0.000000e+00
0.000000e+00
8.822819e-03
1.688905e-02
2.423438e-02
3.089481e-02
3.690543e-02
4.229945e-02
4.710742e-02
5.135670e-02
5.507103e-02
5.827025e-02
6.097005e-02
6.318180e-02
6.491237e-02
6.616396e-02
6.693386e-02
6.721424e-02
6.699188e-02
6.624782e-02
6.495700e-02
6.308786e-02
6.060185e-02
5.745291e-02
5.358698e-02
4.894140e-02
4.344442e-02
3.701475e-02
2.956128e-02
2.098300e-02
1.116918e-02
0.000000e+00
0.000000e+00
8.561888e-03
1.636412e-02
2.344767e-02
2.985331e-02
3.562026e-02
4.078503e-02
4.538073e-02
4.943661e-02
5.297776e-02
5.602492e-02
5.859447e-02
6.069827e-02
6.234359e-02
6.353304e-02
6.426436e-02
6.453027e-02
6.431820e-02
6.360996e-02
6.238138e-02
6.060185e-02
5.823381e-02
5.523218e-02
5.154366e-02
4.710610e-02
4.184776e-02
3.568672e-02
2.853033e-02
2.027502e-02
1.080642e-02
0.000000e+00
0.000000e+00
8.226364e-03
1.568969e-02
2.243814e-02
2.851889e-02
3.397639e-02
3.885125e-02
4.317957e-02
4.699268e-02
5.031707e-02
5.317443e-02
5.558172e-02
5.755125e-02
5.909069e-02
6.020303e-02
6.088654e-02
6.113459e-02
6.093540e-02
6.027178e-02
5.912072e-02
5.745291e-02
5.523218e-02
5.241480e-02
4.894873e-02
4.477271e-02
3.981537e-02
3.399425e-02
2.721503e-02
1.937097e-02
1.034291e-02
0.000000e+00
0.000000e+00
7.805949e-03
1.484564e-02
2.117698e-02
2.685544e-02
3.193198e-02
3.645189e-02
4.045450e-02
4.397323e-02
4.703579e-02
4.966461e-02
5.187704e-02
5.368566e-02
5.509841e-02
5.611864e-02
5.674514e-02
5.697199e-02
5.678841e-02
5.617841e-02
5.512047e-02
5.358698e-02
5.154366e-02
4.894873e-02
4.575201e-02
4.189383e-02
3.730375e-02
3.189924e-02
2.558434e-02
1.824867e-02
9.767000e-03
0.000000e+00
0.000000e+00
7.287013e-03
1.380563e-02
1.962702e-02
2.481724e-02
2.943487e-02
3.353026e-02
3.714581e-02
4.031659e-02
4.307112e-02
4.543206e-02
4.741678e-02
4.903782e-02
5.030317e-02
5.121641e-02
5.177681e-02
5.197926e-02
5.181408e-02
5.126679e-02
5.031770e-02
4.894140e-02
4.710610e-02
4.477271e-02
4.189383e-02
3.841233e-02
3.425973e-02
2.935433e-02
2.359910e-02
1.687975e-02
9.063617e-03
0.000000e+00
0.000000e+00
6.651093e-03
1.253461e-02
1.773988e-02
2.234611e-02
2.642021e-02
3.001727e-02
3.318190e-02
3.594992e-02
3.834971e-02
4.040343e-02
4.212787e-02
4.353505e-02
4.463269e-02
4.542442e-02
4.590993e-02
4.608490e-02
4.594097e-02
4.546541e-02
4.464077e-02
4.344442e-02
4.184776e-02
3.981537e-02
3.730375e-02
3.425973e-02
3.061842e-02
2.630055e-02
2.120940e-02
1.522731e-02
8.212819e-03
0.000000e+00
0.000000e+00
5.872257e-03
1.098469e-02
1.545163e-02
1.936760e-02
2.280737e-02
2.582905e-02
2.847764e-02
3.078794e-02
3.278684e-02
3.449488e-02
3.592742e-02
3.709539e-02
3.800584e-02
3.866217e-02
3.906439e-02
3.920903e-02
3.908915e-02
3.869406e-02
3.800903e-02
3.701475e-02
3.568672e-02
3.399425e-02
3.189924e-02
2.935433e-02
2.630055e-02
2.266387e-02
1.835067e-02
1.324200e-02
7.187236e-03
0.000000e+00
0.000000e+00
4.912009e-03
9.088071e-03
1.267613e-02
1.578582e-02
1.849620e-02
2.086449e-02
2.293266e-02
2.473193e-02
2.628572e-02
2.761157e-02
2.872241e-02
2.962742e-02
3.033246e-02
3.084047e-02
3.115161e-02
3.126330e-02
3.117013e-02
3.086376e-02
3.033257e-02
2.956128e-02
2.853033e-02
2.721503e-02
2.558434e-02
2.359910e-02
2.120940e-02
1.835067e-02
1.493765e-02
1.085547e-02
5.947149e-03
0.000000e+00
0.000000e+00
3.708391e-03
6.744469e-03
9.295206e-03
1.147678e-02
1.336300e-02
1.500282e-02
1.643008e-02
1.766897e-02
1.873713e-02
1.964756e-02
2.040973e-02
2.103029e-02
2.151351e-02
2.186156e-02
2.207464e-02
2.215101e-02
2.208698e-02
2.187678e-02
2.151234e-02
2.098300e-02
2.027502e-02
1.937097e-02
1.824867e-02
1.687975e-02
1.522731e-02
1.324200e-02
1.085547e-02
7.968563e-03
4.429943e-03
0.000000e+00
0.000000e+00
2.149516e-03
3.798275e-03
5.144807e-03
6.281249e-03
7.257100e-03
8.102167e-03
8.835930e-03
9.471854e-03
1.001956e-02
1.048605e-02
1.087636e-02
1.119402e-02
1.144131e-02
1.161938e-02
1.172837e-02
1.176740e-02
1.173458e-02
1.162693e-02
1.144031e-02
1.116918e-02
1.080642e-02
1.034291e-02
9.767000e-03
9.063617e-03
8.212819e-03
7.187236e-03
5.947149e-03
4.429943e-03
2.524497e-03
0.000000e+00
0.000000e+00
0.000000e+00
0.000000e+00
0.000000e+00
0.000000e+00
0.000000e+00
0.000000e+00
0.000000e+00
0.000000e+00
0.000000e+00
0.000000e+00
0.000000e+00
0.000000e+00
0.000000e+00
0.000000e+00
0.000000e+00
0.000000e+00
0.000000e+00
0.000000e+00
0.000000e+00
0.000000e+00
0.000000e+00
0.000000e+00
0.000000e+00
0.000000e+00
0.000000e+00
0.000000e+00
0.000000e+00
0.000000e+00
0.000000e+00
0.000000e+00
