# vtk DataFile Version 3.0
vtk output
ASCII
DATASET UNSTRUCTURED_GRID
POINTS 961 float
0.000000e+00 0.000000e+00 0.000000e+00
3.333333e-02 0.000000e+00 0.000000e+00
6.666667e-02 0.000000e+00 0.000000e+00
1.000000e-01 0.000000e+00 0.000000e+00
1.333333e-01 0.000000e+00 0.000000e+00
1.666667e-01 0.000000e+00 0.000000e+00
2.000000e-01 0.000000e+00 0.000000e+00
2.333333e-01 0.000000e+00 0.000000e+00
2.666667e-01 0.000000e+00 0.000000e+00
3.000000e-01 0.000000e+00 0.000000e+00
3.333333e-01 0.000000e+00 0.000000e+00
3.666667e-01 0.000000e+00 0.000000e+00
4.000000e-01 0.000000e+00 0.000000e+00
4.333333e-01 0.000000e+00 0.000000e+00
4.666667e-01 0.000000e+00 0.000000e+00
5.000000e-01 0.000000e+00 0.000000e+00
5.333333e-01 0.000000e+00 0.000000e+00
5.666667e-01 0.000000e+00 0.000000e+00
6.000000e-01 0.000000e+00 0.000000e+00
6.333333e-01 0.000000e+00 0.000000e+00
6.666667e-01 0.000000e+00 0.000000e+00
7.000000e-01 0.000000e+00 0.000000e+00
7.333333e-01 0.000000e+00 0.000000e+00
7.666667e-01 0.000000e+00 0.000000e+00
8.000000e-01 0.000000e+00 0.000000e+00
8.333333e-01 0.000000e+00 0.000000e+00
8.666667e-01 0.000000e+00 0.000000e+00
9.000000e-01 0.000000e+00 0.000000e+00
9.333333e-01 0.000000e+00 0.000000e+00
9.666667e-01 0.000000e+00 0.000000e+00
1.000000e+00 0.000000e+00 0.000000e+00
0.000000e+00 3.333333e-02 0.000000e+00
3.333333e-02 3.333333e-02 0.000000e+00
6.666667e-02 3.333333e-02 0.000000e+00
1.000000e-01 3.333333e-02 0.000000e+00
1.333333e-01 3.333333e-02 0.000000e+00
1.666667e-01 3.333333e-02 0.000000e+00
2.000000e-01 3.333333e-02 0.000000e+00
2.333333e-01 3.333333e-02 0.000000e+00
2.666667e-01 3.333333e-02 0.000000e+00
3.000000e-01 3.333333e-02 0.000000e+00
3.333333e-01 3.333333e-02 0.000000e+00
3.666667e-01 3.333333e-02 0.000000e+00
4.000000e-01 3.333333e-02 0.000000e+00
4.333333e-01 3.333333e-02 0.000000e+00
4.666667e-01 3.333333e-02 0.000000e+00
5.000000e-01 3.333333e-02 0.000000e+00
5.333333e-01 3.333333e-02 0.000000e+00
5.666667e-01 3.333333e-02 0.000000e+00
6.000000e-01 3.333333e-02 0.000000e+00
6.333333e-01 3.333333e-02 0.000000e+00
6.666667e-01 3.333333e-02 0.000000e+00
7.000000e-01 3.333333e-02 0.000000e+00
7.333333e-01 3.333333e-02 0.000000e+00
7.666667e-01 3.333333e-02 0.000000e+00
8.000000e-01 3.333333e-02 0.000000e+00
8.333333e-01 3.333333e-02 0.000000e+00
8.666667e-01 3.333333e-02 0.000000e+00
9.000000e-01 3.333333e-02 0.000000e+00
9.333333e-01 3.333333e-02 0.000000e+00
9.666667e-01 3.333333e-02 0.000000e+00
1.000000e+00 3.333333e-02 0.000000e+00
0.000000e+00 6.666667e-02 0.000000e+00
3.333333e-02 6.666667e-02 0.000000e+00
6.666667e-02 6.666667e-02 0.000000e+00
1.000000e-01 6.666667e-02 0.000000e+00
1.333333e-01 6.666667e-02 0.000000e+00
1.666667e-01 6.666667e-02 0.000000e+00
2.000000e-01 6.666667e-02 0.000000e+00
2.333333e-01 6.666667e-02 0.000000e+00
2.666667e-01 6.666667e-02 0.000000e+00
3.000000e-01 6.666667e-02 0.000000e+00
3.333333e-01 6.666667e-02 0.000000e+00
3.666667e-01 6.666667e-02 0.000000e+00
4.000000e-01 6.666667e-02 0.000000e+00
4.333333e-01 6.666667e-02 0.000000e+00
4.666667e-01 6.666667e-02 0.000000e+00
5.000000e-01 6.666667e-02 0.000000e+00
5.333333e-01 6.666667e-02 0.000000e+00
5.666667e-01 6.666667e-02 0.000000e+00
6.000000e-01 6.666667e-02 0.000000e+00
6.333333e-01 6.666667e-02 0.000000e+00
6.666667e-01 6.666667e-02 0.000000e+00
7.000000e-01 6.666667e-02 0.000000e+00
7.333333e-01 6.666667e-02 0.000000e+00
7.666667e-01 6.666667e-02 0.000000e+00
8.000000e-01 6.666667e-02 0.000000e+00
8.333333e-01 6.666667e-02 0.000000e+00
8.666667e-01 6.666667e-02 0.000000e+00
9.000000e-01 6.666667e-02 0.000000e+00
9.333333e-01 6.666667e-02 0.000000e+00
9.666667e-01 6.666667e-02 0.000000e+00
1.000000e+00 6.666667e-02 0.000000e+00
0.000000e+00 1.000000e-01 0.000000e+00
3.333333e-02 1.000000e-01 0.000000e+00
6.666667e-02 1.000000e-01 0.000000e+00
1.000000e-01 1.000000e-01 0.000000e+00
1.333333e-01 1.000000e-01 0.000000e+00
1.666667e-01 1.000000e-01 0.000000e+00
2.000000e-01 1.000000e-01 0.000000e+00
2.333333e-01 1.000000e-01 0.000000e+00
2.666667e-01 1.000000e-01 0.000000e+00
3.000000e-01 1.000000e-01 0.000000e+00
3.333333e-01 1.000000e-01 0.000000e+00
3.666667e-01 1.000000e-01 0.000000e+00
4.000000e-01 1.000000e-01 0.000000e+00
4.333333e-01 1.000000e-01 0.000000e+00
4.666667e-01 1.000000e-01 0.000000e+00
5.000000e-01 1.000000e-01 0.000000e+00
5.333333e-01 1.000000e-01 0.000000e+00
5.666667e-01 1.000000e-01 0.000000e+00
6.000000e-01 1.000000e-01 0.000000e+00
6.333333e-01 1.000000e-01 0.000000e+00
6.666667e-01 1.000000e-01 0.000000e+00
7.000000e-01 1.000000e-01 0.000000e+00
7.333333e-01 1.000000e-01 0.000000e+00
7.666667e-01 1.000000e-01 0.000000e+00
8.000000e-01 1.000000e-01 0.000000e+00
8.333333e-01 1.000000e-01 0.000000e+00
8.666667e-01 1.000000e-01 0.000000e+00
9.000000e-01 1.000000e-01 0.000000e+00
9.333333e-01 1.000000e-01 0.000000e+00
9.666667e-01 1.000000e-01 0.000000e+00
1.000000e+00 1.000000e-01 0.000000e+00
0.000000e+00 1.333333e-01 0.000000e+00
3.333333e-02 1.333333e-01 0.000000e+00
6.666667e-02 1.333333e-01 0.000000e+00
1.000000e-01 1.333333e-01 0.000000e+00
1.333333e-01 1.333333e-01 0.000000e+00
1.666667e-01 1.333333e-01 0.000000e+00
2.000000e-01 1.333333e-01 0.000000e+00
2.333333e-01 1.333333e-01 0.000000e+00
2.666667e-01 1.333333e-01 0.000000e+00
3.000000e-01 1.333333e-01 0.000000e+00
3.333333e-01 1.333333e-01 0.000000e+00
3.666667e-01 1.333333e-01 0.000000e+00
4.000000e-01 1.333333e-01 0.000000e+00
4.333333e-01 1.333333e-01 0.000000e+00
4.666667e-01 1.333333e-01 0.000000e+00
5.000000e-01 1.333333e-01 0.000000e+00
5.333333e-01 1.333333e-01 0.000000e+00
5.666667e-01 1.333333e-01 0.000000e+00
6.000000e-01 1.333333e-01 0.000000e+00
6.333333e-01 1.333333e-01 0.000000e+00
6.666667e-01 1.333333e-01 0.000000e+00
7.000000e-01 1.333333e-01 0.000000e+00
7.333333e-01 1.333333e-01 0.000000e+00
7.666667e-01 1.333333e-01 0.000000e+00
8.000000e-01 1.333333e-01 0.000000e+00
8.333333e-01 1.333333e-01 0.000000e+00
8.666667e-01 1.333333e-01 0.000000e+00
9.000000e-01 1.333333e-01 0.000000e+00
9.333333e-01 1.333333e-01 0.000000e+00
9.666667e-01 1.333333e-01 0.000000e+00
1.000000e+00 1.333333e-01 0.000000e+00
0.000000e+00 1.666667e-01 0.000000e+00
3.333333e-02 1.666667e-01 0.000000e+00
6.666667e-02 1.666667e-01 0.000000e+00
1.000000e-01 1.666667e-01 0.000000e+00
1.333333e-01 1.666667e-01 0.000000e+00
1.666667e-01 1.666667e-01 0.000000e+00
2.000000e-01 1.666667e-01 0.000000e+00
2.333333e-01 1.666667e-01 0.000000e+00
2.666667e-01 1.666667e-01 0.000000e+00
3.000000e-01 1.666667e-01 0.000000e+00
3.333333e-01 1.666667e-01 0.000000e+00
3.666667e-01 1.666667e-01 0.000000e+00
4.000000e-01 1.666667e-01 0.000000e+00
4.333333e-01 1.666667e-01 0.000000e+00
4.666667e-01 1.666667e-01 0.000000e+00
5.000000e-01 1.666667e-01 0.000000e+00
5.333333e-01 1.666667e-01 0.000000e+00
5.666667e-01 1.666667e-01 0.000000e+00
6.000000e-01 1.666667e-01 0.000000e+00
6.333333e-01 1.666667e-01 0.000000e+00
6.666667e-01 1.666667e-01 0.000000e+00
7.000000e-01 1.666667e-01 0.000000e+00
7.333333e-01 1.666667e-01 0.000000e+00
7.666667e-01 1.666667e-01 0.000000e+00
8.000000e-01 1.666667e-01 0.000000e+00
8.333333e-01 1.666667e-01 0.000000e+00
8.666667e-01 1.666667e-01 0.000000e+00
9.000000e-01 1.666667e-01 0.000000e+00
9.333333e-01 1.666667e-01 0.000000e+00
9.666667e-01 1.666667e-01 0.000000e+00
1.000000e+00 1.666667e-01 0.000000e+00
0.000000e+00 2.000000e-01 0.000000e+00
3.333333e-02 2.000000e-01 0.000000e+00
6.666667e-02 2.000000e-01 0.000000e+00
1.000000e-01 2.000000e-01 0.000000e+00
1.333333e-01 2.000000e-01 0.000000e+00
1.666667e-01 2.000000e-01 0.000000e+00
2.000000e-01 2.000000e-01 0.000000e+00
2.333333e-01 2.000000e-01 0.000000e+00
2.666667e-01 2.000000e-01 0.000000e+00
3.000000e-01 2.000000e-01 0.000000e+00
3.333333e-01 2.000000e-01 0.000000e+00
3.666667e-01 2.000000e-01 0.000000e+00
4.000000e-01 2.000000e-01 0.000000e+00
4.333333e-01 2.000000e-01 0.000000e+00
4.666667e-01 2.000000e-01 0.000000e+00
5.000000e-01 2.000000e-01 0.000000e+00
5.333333e-01 2.000000e-01 0.000000e+00
5.666667e-01 2.000000e-01 0.000000e+00
6.000000e-01 2.000000e-01 0.000000e+00
6.333333e-01 2.000000e-01 0.000000e+00
6.666667e-01 2.000000e-01 0.000000e+00
7.000000e-01 2.000000e-01 0.000000e+00
7.333333e-01 2.000000e-01 0.000000e+00
7.666667e-01 2.000000e-01 0.000000e+00
8.000000e-01 2.000000e-01 0.000000e+00
8.333333e-01 2.000000e-01 0.000000e+00
8.666667e-01 2.000000e-01 0.000000e+00
9.000000e-01 2.000000e-01 0.000000e+00
9.333333e-01 2.000000e-01 0.000000e+00
9.666667e-01 2.000000e-01 0.000000e+00
1.000000e+00 2.000000e-01 0.000000e+00
0.000000e+00 2.333333e-01 0.000000e+00
3.333333e-02 2.333333e-01 0.000000e+00
6.666667e-02 2.333333e-01 0.000000e+00
1.000000e-01 2.333333e-01 0.000000e+00
1.333333e-01 2.333333e-01 0.000000e+00
1.666667e-01 2.333333e-01 0.000000e+00
2.000000e-01 2.333333e-01 0.000000e+00
2.333333e-01 2.333333e-01 0.000000e+00
2.666667e-01 2.333333e-01 0.000000e+00
3.000000e-01 2.333333e-01 0.000000e+00
3.333333e-01 2.333333e-01 0.000000e+00
3.666667e-01 2.333333e-01 0.000000e+00
4.000000e-01 2.333333e-01 0.000000e+00
4.333333e-01 2.333333e-01 0.000000e+00
4.666667e-01 2.333333e-01 0.000000e+00
5.000000e-01 2.333333e-01 0.000000e+00
5.333333e-01 2.333333e-01 0.000000e+00
5.666667e-01 2.333333e-01 0.000000e+00
6.000000e-01 2.333333e-01 0.000000e+00
6.333333e-01 2.333333e-01 0.000000e+00
6.666667e-01 2.333333e-01 0.000000e+00
7.000000e-01 2.333333e-01 0.000000e+00
7.333333e-01 2.333333e-01 0.000000e+00
7.666667e-01 2.333333e-01 0.000000e+00
8.000000e-01 2.333333e-01 0.000000e+00
8.333333e-01 2.333333e-01 0.000000e+00
8.666667e-01 2.333333e-01 0.000000e+00
9.000000e-01 2.333333e-01 0.000000e+00
9.333333e-01 2.333333e-01 0.000000e+00
9.666667e-01 2.333333e-01 0.000000e+00
1.000000e+00 2.333333e-01 0.000000e+00
0.000000e+00 2.666667e-01 0.000000e+00
3.333333e-02 2.666667e-01 0.000000e+00
6.666667e-02 2.666667e-01 0.000000e+00
1.000000e-01 2.666667e-01 0.000000e+00
1.333333e-01 2.666667e-01 0.000000e+00
1.666667e-01 2.666667e-01 0.000000e+00
[...]
POINT_DATA 961
SCALARS u float
LOOKUP_TABLE default
0.000000e+00
0.000000e+00
0.000000e+00
0.000000e+00
0.000000e+00
0.000000e+00
0.000000e+00
0.000000e+00
0.000000e+00
0.000000e+00
0.000000e+00
0.000000e+00
0.000000e+00
0.000000e+00
0.000000e+00
0.000000e+00
0.000000e+00
0.000000e+00
0.000000e+00
0.000000e+00
0.000000e+00
0.000000e+00
0.000000e+00
0.000000e+00
0.000000e+00
0.000000e+00
0.000000e+00
0.000000e+00
0.000000e+00
0.000000e+00
0.000000e+00
0.000000e+00
1.866351e-03
3.239383e-03
4.323944e-03
5.214925e-03
5.963151e-03
6.599106e-03
7.142624e-03
7.607359e-03
8.003047e-03
8.336762e-03
8.613655e-03
8.837396e-03
9.010454e-03
9.134272e-03
9.209353e-03
9.235310e-03
9.210850e-03
9.133726e-03
9.000629e-03
8.807022e-03
8.546891e-03
8.212364e-03
7.793139e-03
7.275576e-03
6.641205e-03
5.864081e-03
4.905695e-03
3.704074e-03
2.147310e-03
0.000000e+00
0.000000e+00
3.239383e-03
5.809971e-03
7.910787e-03
9.665221e-03
1.115142e-02
1.242100e-02
1.350947e-02
1.444211e-02
1.523734e-02
1.590871e-02
1.646620e-02
1.691692e-02
1.726570e-02
1.751533e-02
1.766677e-02
1.771921e-02
1.767005e-02
1.751477e-02
1.724680e-02
1.685711e-02
1.633380e-02
1.566139e-02
1.481974e-02
1.378250e-02
1.251462e-02
1.096816e-02
9.075307e-03
6.735740e-03
3.793815e-03
0.000000e+00
0.000000e+00
4.323944e-03
7.910787e-03
1.092279e-02
1.347986e-02
1.566819e-02
1.754986e-02
1.917022e-02
2.056284e-02
2.175287e-02
2.275915e-02
2.359571e-02
2.427268e-02
2.479688e-02
2.517230e-02
2.540021e-02
2.547933e-02
2.540574e-02
2.517276e-02
2.477064e-02
2.418613e-02
2.340186e-02
2.239538e-02
2.113785e-02
1.959209e-02
1.770968e-02
1.542666e-02
1.265685e-02
9.282020e-03
5.138069e-03
0.000000e+00
0.000000e+00
5.214925e-03
9.665221e-03
1.347986e-02
1.676512e-02
1.960474e-02
2.206351e-02
2.419134e-02
2.602669e-02
2.759918e-02
2.893150e-02
3.004076e-02
3.093942e-02
3.163593e-02
3.213512e-02
3.243846e-02
3.254412e-02
3.244689e-02
3.213802e-02
3.160485e-02
3.083027e-02
2.979204e-02
2.846169e-02
2.680311e-02
2.477051e-02
2.230571e-02
1.933420e-02
1.576003e-02
1.145914e-02
6.272235e-03
0.000000e+00
0.000000e+00
5.963151e-03
1.115142e-02
1.566819e-02
1.960474e-02
2.303792e-02
2.603060e-02
2.863351e-02
3.088714e-02
3.282356e-02
3.446783e-02
3.583913e-02
3.695152e-02
3.781458e-02
3.843370e-02
3.881035e-02
3.894207e-02
3.882241e-02
3.844070e-02
3.778165e-02
3.682480e-02
3.554371e-02
3.390494e-02
3.186659e-02
2.937649e-02
2.636974e-02
2.276564e-02
1.846397e-02
1.334096e-02
7.245839e-03
0.000000e+00
0.000000e+00
6.599106e-03
1.242100e-02
1.754986e-02
2.206351e-02
2.603060e-02
2.950985e-02
3.255041e-02
3.519279e-02
3.746983e-02
3.940774e-02
4.102678e-02
4.234199e-02
4.336355e-02
4.409711e-02
4.454393e-02
4.470089e-02
4.456035e-02
4.410989e-02
4.333193e-02
4.220312e-02
4.069358e-02
3.876588e-02
3.637377e-02
3.346052e-02
2.995697e-02
2.577920e-02
2.082599e-02
1.497649e-02
8.088712e-03
0.000000e+00
0.000000e+00
7.142624e-03
1.350947e-02
1.917022e-02
2.419134e-02
2.863351e-02
3.255041e-02
3.598837e-02
3.898658e-02
4.157750e-02
4.378745e-02
4.563706e-02
4.714169e-02
4.831173e-02
4.915280e-02
4.966578e-02
4.984683e-02
4.968719e-02
4.917291e-02
4.828442e-02
4.699598e-02
4.527494e-02
4.308081e-02
4.036414e-02
3.706513e-02
3.311215e-02
2.841997e-02
2.288813e-02
1.639963e-02
8.820366e-03
0.000000e+00
0.000000e+00
7.607359e-03
1.444211e-02
2.056284e-02
2.602669e-02
3.088714e-02
3.519279e-02
3.898658e-02
4.230563e-02
4.518128e-02
4.763928e-02
4.970000e-02
5.137869e-02
5.268557e-02
5.362597e-02
5.420031e-02
5.440400e-02
5.422722e-02
5.365468e-02
5.266515e-02
5.123094e-02
4.931722e-02
4.688123e-02
4.387124e-02
4.022554e-02
3.587120e-02
3.072286e-02
2.468167e-02
1.763459e-02
9.454289e-03
0.000000e+00
0.000000e+00
8.003047e-03
1.523734e-02
2.175287e-02
2.759918e-02
3.282356e-02
3.746983e-02
4.157750e-02
4.518128e-02
4.831096e-02
5.099126e-02
5.324192e-02
5.507770e-02
5.650844e-02
5.753901e-02
5.816925e-02
5.839381e-02
5.820195e-02
5.757718e-02
5.649692e-02
5.493192e-02
5.284569e-02
5.019378e-02
4.692298e-02
4.297040e-02
3.826263e-02
3.271484e-02
2.623012e-02
1.869911e-02
1.000013e-02
0.000000e+00
0.000000e+00
8.336762e-03
1.590871e-02
2.275915e-02
2.893150e-02
3.446783e-02
3.940774e-02
4.378745e-02
4.763928e-02
5.099126e-02
5.386689e-02
5.628501e-02
5.825972e-02
5.980028e-02
6.091100e-02
6.159110e-02
6.183451e-02
6.162964e-02
6.095902e-02
5.979894e-02
5.811893e-02
5.588127e-02
5.304033e-02
4.954190e-02
4.532250e-02
4.030872e-02
3.441657e-02
2.755109e-02
1.960620e-02
1.046491e-02
0.000000e+00
0.000000e+00
8.613655e-03
1.646620e-02
2.359571e-02
3.004076e-02
3.583913e-02
4.102678e-02
4.563706e-02
4.970000e-02
5.324192e-02
5.628501e-02
5.884715e-02
6.094165e-02
6.257713e-02
6.375729e-02
6.448074e-02
6.474073e-02
6.452493e-02
6.381506e-02
6.258649e-02
6.080785e-02
5.844050e-02
5.543799e-02
5.174551e-02
4.729935e-02
4.202635e-02
3.584348e-02
2.865760e-02
2.036540e-02
1.085370e-02
0.000000e+00
0.000000e+00
8.837396e-03
1.691692e-02
2.427268e-02
3.093942e-02
3.695152e-02
4.234199e-02
4.714169e-02
5.137869e-02
5.507770e-02
5.825972e-02
6.094165e-02
6.313604e-02
6.485084e-02
6.608916e-02
6.684902e-02
6.712310e-02
6.689843e-02
6.615606e-02
6.487069e-02
6.301023e-02
6.053539e-02
5.739921e-02
5.354653e-02
4.891361e-02
4.342766e-02
3.700660e-02
2.955885e-02
2.098340e-02
1.117006e-02
0.000000e+00
0.000000e+00
9.010454e-03
1.726570e-02
2.479688e-02
3.163593e-02
3.781458e-02
4.336355e-02
4.831173e-02
5.268557e-02
5.650844e-02
5.980028e-02
6.257713e-02
6.485084e-02
6.662875e-02
6.791345e-02
6.870245e-02
6.898793e-02
6.875642e-02
6.798844e-02
6.665819e-02
6.473307e-02
6.217338e-02
5.893179e-02
5.495301e-02
5.017336e-02
4.452047e-02
3.791305e-02
3.026080e-02
2.146451e-02
1.141627e-02
0.000000e+00
0.000000e+00
9.134272e-03
1.751533e-02
2.517230e-02
3.213512e-02
3.843370e-02
4.409711e-02
4.915280e-02
5.362597e-02
5.753901e-02
6.091100e-02
6.375729e-02
6.608916e-02
6.791345e-02
6.923231e-02
7.004285e-02
7.033687e-02
7.010051e-02
6.931394e-02
6.795098e-02
6.597873e-02
6.335719e-02
6.003888e-02
5.596843e-02
5.108230e-02
4.530848e-02
3.856631e-02
3.076644e-02
2.181094e-02
1.159351e-02
0.000000e+00
0.000000e+00
9.209353e-03
1.766677e-02
2.540021e-02
3.243846e-02
3.881035e-02
4.454393e-02
4.966578e-02
5.420031e-02
5.816925e-02
6.159110e-02
6.448074e-02
6.684902e-02
6.870245e-02
7.004285e-02
7.086706e-02
7.116661e-02
7.092740e-02
7.012936e-02
6.874612e-02
6.674461e-02
6.408470e-02
6.071883e-02
5.659167e-02
5.163980e-02
4.579147e-02
3.896644e-02
3.107598e-02
2.202292e-02
1.170194e-02
0.000000e+00
0.000000e+00
9.235310e-03
1.771921e-02
2.547933e-02
3.254412e-02
3.894207e-02
4.470089e-02
4.984683e-02
5.440400e-02
5.839381e-02
6.183451e-02
6.474073e-02
6.712310e-02
6.898793e-02
7.033687e-02
7.116661e-02
7.146854e-02
7.122848e-02
7.042627e-02
6.903547e-02
6.702300e-02
6.434872e-02
6.096511e-02
5.681690e-02
5.184080e-02
4.596520e-02
3.911006e-02
3.118687e-02
2.209874e-02
1.174069e-02
0.000000e+00
0.000000e+00
9.210850e-03
1.767005e-02
2.540574e-02
3.244689e-02
3.882241e-02
4.456035e-02
4.968719e-02
5.422722e-02
5.820195e-02
6.162964e-02
6.452493e-02
6.689843e-02
6.875642e-02
7.010051e-02
7.092740e-02
7.122848e-02
7.098960e-02
7.019069e-02
6.880540e-02
6.680075e-02
6.413675e-02
6.076602e-02
5.663341e-02
5.167570e-02
4.582134e-02
3.899023e-02
3.109375e-02
2.203475e-02
1.170788e-02
0.000000e+00
0.000000e+00
9.133726e-03
1.751477e-02
2.517276e-02
3.213802e-02
3.844070e-02
4.410989e-02
4.917291e-02
5.365468e-02
5.757718e-02
6.095902e-02
6.381506e-02
6.615606e-02
6.798844e-02
6.931394e-02
7.012936e-02
7.042627e-02
7.019069e-02
6.940278e-02
6.803644e-02
6.605898e-02
6.343069e-02
6.010443e-02
5.602527e-02
5.113007e-02
4.534721e-02
3.859633e-02
3.078829e-02
2.182517e-02
1.160056e-02
0.000000e+00
0.000000e+00
9.000629e-03
1.724680e-02
2.477064e-02
3.160485e-02
3.778165e-02
4.333193e-02
4.828442e-02
5.266515e-02
5.649692e-02
5.979894e-02
6.258649e-02
6.487069e-02
6.665819e-02
6.795098e-02
6.874612e-02
6.903547e-02
6.880540e-02
6.803644e-02
6.670294e-02
6.477268e-02
6.220639e-02
5.895737e-02
5.497099e-02
5.018425e-02
4.452540e-02
3.791363e-02
3.025891e-02
2.146197e-02
1.141456e-02
0.000000e+00
0.000000e+00
8.807022e-03
1.685711e-02
2.418613e-02
3.083027e-02
3.682480e-02
4.220312e-02
4.699598e-02
5.123094e-02
5.493192e-02
5.811893e-02
6.080785e-02
6.301023e-02
6.473307e-02
6.597873e-02
6.674461e-02
6.702300e-02
6.680075e-02
6.605898e-02
6.477268e-02
6.291029e-02
6.043328e-02
5.729555e-02
5.344299e-02
4.881285e-02
4.333327e-02
3.692286e-02
2.949032e-02
2.093447e-02
1.114438e-02
0.000000e+00
0.000000e+00
8.546891e-03
1.633380e-02
2.340186e-02
2.979204e-02
3.554371e-02
4.069358e-02
4.527494e-02
4.931722e-02
5.284569e-02
5.588127e-02
5.844050e-02
6.053539e-02
6.217338e-02
6.335719e-02
6.408470e-02
6.434872e-02
6.413675e-02
6.343069e-02
6.220639e-02
6.043328e-02
5.807378e-02
5.508279e-02
5.140696e-02
4.698405e-02
4.174225e-02
3.559948e-02
2.846296e-02
2.022895e-02
1.078287e-02
0.000000e+00
0.000000e+00
8.212364e-03
1.566139e-02
2.239538e-02
2.846169e-02
3.390494e-02
3.876588e-02
4.308081e-02
4.688123e-02
5.019378e-02
5.304033e-02
5.543799e-02
5.739921e-02
5.893179e-02
6.003888e-02
6.071883e-02
6.096511e-02
6.076602e-02
6.010443e-02
5.895737e-02
5.729555e-02
5.508279e-02
5.227534e-02
4.882112e-02
4.465878e-02
3.971687e-02
3.391281e-02
2.715214e-02
1.932796e-02
1.032093e-02
0.000000e+00
0.000000e+00
7.793139e-03
1.481974e-02
2.113785e-02
2.680311e-02
3.186659e-02
3.637377e-02
4.036414e-02
4.387124e-02
4.692298e-02
4.954190e-02
5.174551e-02
5.354653e-02
5.495301e-02
5.596843e-02
5.659167e-02
5.681690e-02
5.663341e-02
5.602527e-02
5.497099e-02
5.344299e-02
5.140696e-02
4.882112e-02
4.563524e-02
4.178958e-02
3.721362e-02
3.182471e-02
2.552679e-02
1.820931e-02
9.746887e-03
0.000000e+00
0.000000e+00
7.275576e-03
1.378250e-02
1.959209e-02
2.477051e-02
2.937649e-02
3.346052e-02
3.706513e-02
4.022554e-02
4.297040e-02
4.532250e-02
4.729935e-02
4.891361e-02
5.017336e-02
5.108230e-02
5.163980e-02
5.184080e-02
5.167570e-02
5.113007e-02
5.018425e-02
4.881285e-02
4.698405e-02
4.465878e-02
4.178958e-02
3.831925e-02
3.417926e-02
2.928780e-02
2.354772e-02
1.684462e-02
9.045661e-03
0.000000e+00
0.000000e+00
6.641205e-03
1.251462e-02
1.770968e-02
2.230571e-02
2.636974e-02
2.995697e-02
3.311215e-02
3.587120e-02
3.826263e-02
4.030872e-02
4.202635e-02
4.342766e-02
4.452047e-02
4.530848e-02
4.579147e-02
4.596520e-02
4.582134e-02
4.534721e-02
4.452540e-02
4.333327e-02
4.174225e-02
3.971687e-02
3.721362e-02
3.417926e-02
3.054885e-02
2.624303e-02
2.116498e-02
1.519693e-02
8.197295e-03
0.000000e+00
0.000000e+00
5.864081e-03
1.096816e-02
1.542666e-02
1.933420e-02
2.276564e-02
2.577920e-02
2.841997e-02
3.072286e-02
3.271484e-02
3.441657e-02
3.584348e-02
3.700660e-02
3.791305e-02
3.856631e-02
3.896644e-02
3.911006e-02
3.899023e-02
3.859633e-02
3.791363e-02
3.692286e-02
3.559948e-02
3.391281e-02
3.182471e-02
2.928780e-02
2.624303e-02
2.261631e-02
1.831395e-02
1.321688e-02
7.174401e-03
0.000000e+00
0.000000e+00
4.905695e-03
9.075307e-03
1.265685e-02
1.576003e-02
1.846397e-02
2.082599e-02
2.288813e-02
2.468167e-02
2.623012e-02
2.755109e-02
2.865760e-02
2.955885e-02
3.026080e-02
3.076644e-02
3.107598e-02
3.118687e-02
3.109375e-02
3.078829e-02
3.025891e-02
2.949032e-02
2.846296e-02
2.715214e-02
2.552679e-02
2.354772e-02
2.116498e-02
1.831395e-02
1.490929e-02
1.083608e-02
5.937238e-03
0.000000e+00
0.000000e+00
3.704074e-03
6.735740e-03
9.282020e-03
1.145914e-02
1.334096e-02
1.497649e-02
1.639963e-02
1.763459e-02
1.869911e-02
1.960620e-02
2.036540e-02
2.098340e-02
2.146451e-02
2.181094e-02
2.202292e-02
2.209874e-02
2.203475e-02
2.182517e-02
2.146197e-02
2.093447e-02
2.022895e-02
1.932796e-02
1.820931e-02
1.684462e-02
1.519693e-02
1.321688e-02
1.083608e-02
7.955299e-03
4.423165e-03
0.000000e+00
0.000000e+00
2.147310e-03
3.793815e-03
5.138069e-03
6.272235e-03
7.245839e-03
8.088712e-03
8.820366e-03
9.454289e-03
1.000013e-02
1.046491e-02
1.085370e-02
1.117006e-02
1.141627e-02
1.159351e-02
1.170194e-02
1.174069e-02
1.170788e-02
1.160056e-02
1.141456e-02
1.114438e-02
1.078287e-02
1.032093e-02
9.746887e-03
9.045661e-03
8.197295e-03
7.174401e-03
5.937238e-03
4.423165e-03
2.521033e-03
0.000000e+00
0.000000e+00
0.000000e+00
0.000000e+00
0.000000e+00
0.000000e+00
0.000000e+00
0.000000e+00
0.000000e+00
0.000000e+00
0.000000e+00
0.000000e+00
0.000000e+00
0.000000e+00
0.000000e+00
0.000000e+00
0.000000e+00
0.000000e+00
0.000000e+00
0.000000e+00
0.000000e+00
0.000000e+00
0.000000e+00
0.000000e+00
0.000000e+00
0.000000e+00
0.000000e+00
0.000000e+00
0.000000e+00
0.000000e+00
0.000000e+00
0.000000e+00
